InChIkey,Solvent,MW,SASA,G_sol,DeltaG_sol,Volume,sol_dip,LsoluHsolv,LsolvHsolu,O_charges,C_charges,Most_neg,Most_pos,Het_charges,LogS
OIGNJSKKLXVSLS-VWUMJDOONA-N,water,360.449,340.309,-35673.088,-799.7940000000017,436.186,10.0122,10.899,14.191,-2.88514,-2.29235,-0.64673,0.64466,-2.88514,-3.158295668
XRHGYUZYPHTUJZ-BGGKNDAXNA-N,1-butanol,156.568,170.601,-23036.43,-1635.569333333333,436.186,10.0122,9.215,13.014,-1.08527,0.07304,-0.60487,0.66901,-1.17407,-0.83489927
OIGNJSKKLXVSLS-VWUMJDOONA-N,dmso,360.449,339.365,-35981.636,-1108.3420000000042,437.5,8.22335,7.633999999999999,11.059,-2.84914,-2.23304,-0.63218,0.63909,-2.84914,-0.210663897
ZUOUZKKEUPVFJK-UHFFFAOYNA-N,ethanol,154.211,198.095,-22122.358,-1303.7288148148143,201.279,0.00395988,10.245,12.208,0.0,-1.60424,-0.18018,0.16361,0.0,-0.256117521
ZQBAKBUEJOMQEX-UHFFFAOYNA-N,2-butanol,214.22,239.896,-26580.160000000003,-579.197750000003,251.761,4.1679,9.563,12.689,-1.4548,-0.47129,-0.57977,0.71438,-1.4548,0.269193748
JYGXADMDTFJGBT-VWUMJDOONA-N,water,362.465,346.06,-35522.060000000005,382.2485999999917,251.761,4.1679,11.277,14.158,-2.90268,-2.50419,-0.65666,0.64812,-2.90268,-3.074266886
CDVNZMKTJIBBBV-WXRBYKJCNA-N,2-butoxyethanol,226.145,221.12,-26070.716,-987.8713333333252,251.761,4.1679,8.03,13.061,-2.97446,-0.1674999999999999,-0.56458,0.87482,-1.2302,-0.274954102
KRKNYBCHXYNGOX-CUNNJMNPNA-N,ethanol,192.125,189.823,-26102.496,-947.3238181818124,251.761,4.1679,9.921,14.616,-3.69585,1.2678,-0.60788,0.67694,-3.69585,0.362268519
XMTQQYYKAHVGBJ-XWKXFZRBNA-N,cyclopentanol,233.097,243.54,-26686.704,-1702.0124800000012,251.237,7.2235,9.726,12.165,-0.66368,-0.26407,-0.66368,0.68219,-1.6336,-0.781310437
CKAPSXZOOQJIBF-UHFFFAOYNA-N,2-methyl-2-propanol,284.784,220.81,-23572.322,1951.6758571428616,251.237,7.2235,9.012,13.057,0.0,0.06128,-0.01039,0.01032,-0.06128,-2.250538103
PYHXGXCGESYPCW-YAQRNVERNA-N,dmso,212.248,242.212,-26415.588,-563.2588571428532,251.237,7.2235,8.263,10.689,-1.0766,-1.10727,-0.60456,0.65125,-1.0766,0.408239965
ROORDVPLFPIABK-UHFFFAOYNA-N,2-methyl-1-propanol,214.22,244.824,-25986.238,-786.3402857142864,251.237,7.2235,9.184,12.956,-1.33169,-0.41947,-0.55921,0.76501,-1.33169,-0.886859053
GVPWHKZIJBODOX-UHFFFAOYNA-N,toluene,246.385,274.697,-28929.662,-1096.3876000000057,251.237,7.2235,8.142,9.48,0.0,-2.14235,-0.32594,0.18509,-0.1153599999999999,0.179264466
YSSSPARMOAYJTE-UHFFFAOYNA-N,ethanol,360.406,366.639,-35487.444,-473.0430588235249,251.237,7.2235,10.239,12.443,-2.67802,-1.06872,-0.48204,0.1808,-2.67802,-3.050609993
PYHXGXCGESYPCW-YAQRNVERNA-N,acetonitrile,212.248,241.896,-26561.570000000003,-709.2408571428568,251.237,7.2235,12.617,11.067,-1.08475,-1.11512,-0.61407,0.65498,-1.08475,-0.337242168
DFXQXFGFOLXAPO-KZFATGLANA-N,3-methyl-1-butanol,201.566,197.216,-24705.326,-1438.4446470588264,251.237,7.2235,8.533,13.614,-2.00925,0.21194,-0.58577,0.86263,-1.17435,-0.619788758
KZTYYGOKRVBIMI-UHFFFAOYNA-N,decane,218.27,231.972,-25996.274,211.5099166666696,251.237,7.2235,10.317,14.231,-1.91555,-2.08325,-0.95783,2.42287,0.5073200000000001,-2.378823718
KSKWGMNRWCYVAT-UHFFFAOYNA-N,methanol,256.255,264.979,-31691.096000000005,-177.1865714285741,251.237,7.2235,9.814,13.741,-3.03773,0.0426099999999999,-0.57663,0.67982,-3.03773,-2.024081136
GSBSDUZVSCTUKA-PKSOQXRJNA-N,toluene,288.345,305.012,-29225.988,-549.6570666666703,251.237,7.2235,7.895999999999999,8.584999999999999,-1.0614,-1.72036,-0.57876,0.64646,-1.0614,-0.7739211268404256
RZVAJINKPMORJF-BGGKNDAXNA-N,butanone,151.165,185.514,-23531.978000000003,-612.788684210529,181.747,3.98199,9.76,9.446,-1.15279,-0.4312500000000001,-0.65196,0.66292,-1.58997,-0.434810598
DAUAQNGYDSHRET-KZFATGLANA-N,thf,182.176,208.279,-26404.698,-2055.2818461538445,210.518,2.28748,8.571,11.429,-1.83282,-0.0619499999999999,-0.6079,0.66724,-1.83282,-0.328
VLYWMPOKSSWJAL-YAQRNVERNA-N,1-pentanol,280.301,270.362,-28740.264,538.0205833333384,303.213,8.42806,9.033,12.022,-2.2606900000000003,-1.00815,-0.96606,2.54593,-1.4513600000000002,-2.152731251
VHHHONWQHHHLTI-UHFFFAOYNA-N,water,236.74,176.295,-21912.982,-52.73930434782597,193.278,0.000308778,9.977,15.559,0.0,0.28558,-0.0477,0.14279,-0.28557,-3.670000424
WWZKQHOCKIZLMA-BGGKNDAXNA-N,methanol,144.213,206.842,-24567.368,-868.6944999999942,193.278,0.000308778,10.833,13.928,-1.1217,-1.46593,-0.61883,0.67296,-1.1217,0.301059309
NSPMIYGKQJPBQR-UHFFFAOYSA-N,1-butanol,69.0658,95.9042,-16452.703999999998,-358.4867999999988,80.44590000000001,6.34874,10.336,13.598,0.0,-0.32842,-0.24645,0.32077,-0.42851,0.376576957
ZEYHEAKUIGZSGI-BGGKNDAXNA-N,3-methoxy-1-butanol,152.149,180.377,-23100.146,-1613.624068965517,177.998,3.59315,8.975999999999999,11.999,-1.47802,-0.0966599999999999,-0.61578,0.68123,-1.47802,-0.493800768
SKZKKFZAGNVIMN-FSHFIPFONA-N,thf,137.138,160.839,-21291.13,-791.9181176470556,177.998,3.59315,8.782,11.951,-1.18666,0.05854,-0.68045,0.64151,-1.70846,0.319522449
XZAXQWXHBDKYJI-CMLSCEPHNA-N,toluene,346.276,317.016,-32536.768,-0.0097499999938008,177.998,3.59315,8.350999999999999,9.803999999999998,-3.51468,-1.1465,-0.88996,1.59709,-1.91759,-2.054913699
WMKGGPCROCCUDY-PHEQNACWNA-N,benzene,234.297,286.691,-28788.604000000007,-682.3926666666739,177.998,3.59315,8.677000000000001,10.009,-0.53546,-1.72821,-0.53546,0.58444,-0.53546,-0.026872146
BGRJTUBHPOOWDU-QDYITYEQNA-N,thf,341.424,343.464,-35105.482,-927.0194285714242,397.342,12.5128,8.758999999999999,11.273,-3.01374,-1.81821,-0.98963,2.56578,-2.15531,-1.649409858
MJIHNNLFOKEZEW-PKSOQXRJNA-N,1-butanol,369.361,354.722,-33381.956000000006,-738.6719999999987,397.342,12.5128,9.465,11.985,-1.17445,-1.23943,-0.81862,1.17846,-1.49932,-1.535058717
IYYZUPMFVPLQIF-UHFFFAOYNA-N,acetonitrile,184.255,204.586,-22082.318,-296.15766666666605,397.342,12.5128,11.999,10.096,0.0,-1.37463,-0.15037,0.17116,0.03053,-0.582642027
AZQWKYJCGOJGHM-UHFFFAOYNA-N,heptane,108.096,134.91,-19232.982,-389.1280000000006,125.71,0.00064629,8.741,14.818,-0.91622,0.1387799999999999,-0.45811,0.52165,-0.91622,-1.33522675
YGSDEFSMJLZEOE-BGGKNDAXNA-N,methanol,138.123,159.647,-22432.204,-1285.3914000000004,125.71,0.00064629,9.652,12.494,-1.58861,0.15197,-0.61166,0.70253,-1.58861,0.462579471
PVNIIMVLHYAWGP-FZOZFQFYNA-N,acetonitrile,123.111,147.06,-20867.694,-628.035636363631,139.246,1.43844,11.627,12.082,-1.08691,0.37485,-0.60627,0.68959,-1.48573,-2.409320084
XMTQQYYKAHVGBJ-XWKXFZRBNA-N,hexadecane,233.097,243.443,-27026.9,-2042.2084799999936,139.246,1.43844,10.197,13.018,-0.59871,-0.2388099999999999,-0.59871,0.67433,-1.57611,-3.639999555
RCINICONZNJXQF-GXKQXQCDNA-N,2-propanol,853.918,662.641,-64319.99,145.61699999999837,990.315,2.53032,9.626,12.875,-7.38281,-1.72141,-0.64875,0.71775,-7.86446,-1.853871964
QPPBRPIAZZHUNT-YAQRNVERNA-N,water,264.301,267.971,-28201.398,-445.5480000000025,990.315,2.53032,11.116,13.086,-1.97981,-0.8749699999999999,-0.99291,2.56508,-1.668,-2.309250019
GVEPBJHOBDJJJI-UHFFFAOYNA-N,cyclopentanol,202.255,227.244,-23051.568,-487.6482040816263,990.315,2.53032,8.94,11.842,0.0,-1.64582,-0.15661,0.16749,0.0,-0.691026919
OGJPXUAPXNRGGI-QWOVJGMINA-N,1-propanol,319.335,321.122,-33162.952000000005,-651.5713333333406,360.178,10.4112,9.225,11.844,-1.74892,-0.4475800000000001,-0.64068,0.74313,-2.82857,-2.370104793
GVEPBJHOBDJJJI-UHFFFAOYNA-N,octane,202.255,227.244,-22960.630000000005,-396.7102040816317,243.072,0.255892,9.683,12.752,0.0,-1.55797,-0.15731,0.15892,0.0,-0.85917782
BOCJQSFSGAZAPQ-UHFFFAOYNA-N,2-methyl-2-butanol,242.661,236.9,-25902.992,-731.5226530612235,256.833,1.72034,8.261,13.167,-1.04594,-0.1455299999999999,-0.52806,0.56044,-1.10686,-2.136823456
RZVAJINKPMORJF-BGGKNDAXNA-N,1-pentanol,151.165,185.001,-23688.068,-768.8786842105255,256.833,1.72034,10.022,11.642,-1.14899,-0.43012,-0.64908,0.6623,-1.58693,-0.299967304
RJKGJBPXVHTNJL-UHFFFAOYNA-N,butyronitrile,173.171,192.125,-22420.834000000003,-270.3188780487835,256.833,1.72034,10.454,10.713,-1.01596,-1.06625,-0.50967,0.85979,-0.1561699999999999,0.55758561
JLKIGFTWXXRPMT-NDKGDYFDNA-N,methanol,253.275,255.195,-27918.03,-492.0717142857175,273.574,8.64729,10.119,11.967,-2.08451,-1.29098,-0.97843,2.59998,-1.12637,-0.397642835
AQIXAKUUQRKLND-UHFFFAOYSA-N,water,252.337,289.498,-29579.184,-1174.648999999994,273.574,8.64729,11.791,13.189,0.0,-0.71117,-0.50266,0.45062,-2.51888,-1.461796255
WJUFSDZVCOTFON-UHFFFAOYNA-N,toluene,166.176,199.948,-24848.67,-1850.1218333333345,273.574,8.64729,8.439,9.309,-1.22528,-0.3368,-0.5213,0.42188,-1.22528,0.653058043
ISAOCJYIOMOJEB-UHFFFAOYNA-N,2-pentanol,212.248,241.118,-26469.138,-797.3653157894732,273.574,8.64729,9.323,12.79,-1.11016,-1.05543,-0.56455,0.50208,-1.11016,-1.73911724
BBEAQIROQSPTKN-UHFFFAOYNA-N,1-hexanol,202.255,222.477,-22116.008,-7.899014925369556,273.574,8.64729,8.863,11.129,0.0,-1.65954,-0.17841,0.16749,0.0,-0.994390555
RZVAJINKPMORJF-BGGKNDAXNA-N,dmf,151.165,185.159,-24011.356,-1092.166684210526,181.418,3.90532,9.121,9.974,-1.14401,-0.42973,-0.64524,0.66153,-1.58288,0.700357528
XRHGYUZYPHTUJZ-BGGKNDAXNA-N,2-methyl-1-butanol,156.568,170.469,-22707.522,-1306.6613333333298,167.086,2.01534,9.099,13.008,-1.08245,0.07181,-0.60181,0.66755,-1.17072,-0.982952396
DTXVKPOKPFWSFF-MDVJYLRGNA-N,1-butanol,129.549,145.58,-20074.382,-183.50849999999627,136.50699999999998,6.28459,9.089,12.765,0.0,-0.0186799999999999,-0.46323,0.28003,-0.94036,-1.699498558
RGHHSNMVTDWUBI-UHFFFAOYNA-N,chloroform,122.123,152.44,-20368.288,-708.1999999999971,145.717,5.438460000000001,10.547,9.021,-1.03198,-0.14058,-0.55669,0.45128,-1.03198,0.243038049
CWRYPZZKDGJXCA-UHFFFAOYNA-N,"2,2,4-trimethylpentane",154.211,187.008,-20953.036,408.89280000000144,192.397,1.33564,10.286,12.592,0.0,-1.56733,-0.29264,0.16179,0.0,-0.547753425
GSDSWSVVBLHKDQ-QVNXLTHBNA-N,1-propanol,361.372,345.065,-34800.218,-1211.3076666666748,192.397,1.33564,9.068,11.571000000000002,-2.07665,-0.4623000000000001,-0.63841,0.74378,-3.0381,-1.726978901
PVNIIMVLHYAWGP-FZOZFQFYNA-N,1-octanol,123.111,147.228,-20745.298000000003,-505.6396363636377,140.264,4.71196,9.237,13.584,-1.07601,0.36238,-0.59527,0.68406,-1.46359,-1.560000001
YASYVMFAVPKPKE-JSWHHWTPNA-N,water,183.162,194.396,-26095.568,-1080.0468000000037,200.255,6.95547,11.116,14.117,-2.13471,-0.5613600000000001,-0.90798,1.64789,-1.52083,0.54
IPCSVZSSVZVIGE-HCKMINDGNA-N,1-butanol,256.428,348.455,-36059.368,-2457.161,200.255,6.95547,10.589,13.65,-1.11576,-3.54606,-0.62796,0.6738,-1.11576,-0.22184875
WURBFLDFSFBTLW-UHFFFAOYNA-N,2-methyl-2-propanol,210.232,239.966,-25247.912,-237.26620408163217,200.255,6.95547,8.998,13.281,-1.00752,-0.67096,-0.50378,0.44013,-1.00752,-0.942953462
HEFNNWSXXWATRW-YHMJCDSINA-N,1-propanol,206.284,256.535,-28482.116,-486.4640645161344,200.255,6.95547,10.311,12.256,-1.09833,-1.97667,-0.62298,0.64291,-1.09833,0.181843588
VLYWMPOKSSWJAL-YAQRNVERNA-N,dimethylacetamide,280.301,279.736,-29483.734000000004,-205.44941666667,300.066,5.38061,9.075,10.288,-2.32288,-0.95152,-0.99261,2.57947,-1.5154999999999998,-0.058784666
ZUOUZKKEUPVFJK-UHFFFAOYNA-N,2-methyl-2-butanol,154.211,198.05,-21580.424,-761.7948148148134,300.066,5.38061,10.074,12.401,0.0,-1.57689,-0.17698,0.16078,0.0,-0.19581844
ZWLPBLYKEWSWPD-BGGKNDAXNA-N,1-butanol,136.15,166.695,-22331.92,-1323.8372499999969,164.917,3.62802,9.618,12.730999999999998,-1.09885,-0.4916699999999999,-0.62401,0.68293,-1.09885,0.206825876
ZUOUZKKEUPVFJK-UHFFFAOYNA-N,hexadecane,154.211,198.05,-21527.094,-708.4648148148153,164.917,3.62802,10.542,13.164,0.0,-1.52857,-0.17188,0.15649,0.0,-0.086810475
LDHQCZJRKDOVOX-GSMIJIFMNA-N,dmso,86.0902,125.3,-19347.714,-295.3029999999999,164.917,3.62802,7.97,11.821,-1.1217,-0.1629699999999999,-0.63198,0.69347,-1.1217,0.889861721
YLYIXDZITBMCIW-UHFFFAOYNA-N,1-propanol,213.235,241.766,-26647.366,-833.2673333333369,254.432,4.5657700000000006,9.707,12.102,-0.93394,-0.89706,-0.59496,0.61146,-1.11765,-0.958607315
KZTYYGOKRVBIMI-UHFFFAOYNA-N,1-octanol,218.27,232.259,-25737.67,470.1139166666653,254.432,4.5657700000000006,9.916,12.846,-1.98631,-2.09922,-0.9932,2.45386,0.4675500000000001,-1.513887927
UJOBWOGCFQCDNV-UHFFFAOYNA-N,heptane,167.21,198.372,-21769.924,-109.1736000000019,203.276,1.48265,10.663,12.482,0.0,-1.21395,-0.29659,0.27729,-0.29659,-2.920508344
QIQXTHQIDYTFRH-LILDFLRNNA-N,1-propanol,284.481,380.119,-37394.51,-248.2248749999926,423.746,2.47615,10.725,13.521,-1.11451,-4.0352,-0.60787,0.66858,-1.11451,-0.056813106
IMMLSOUHQHJKTL-LNNLXFCONA-N,methanol,467.348,449.245,-43603.168,-1521.878499999999,423.746,2.47615,9.95,11.547,-2.54893,-0.81657,-0.61451,0.66738,-3.681,-1.337242168
CKAPSXZOOQJIBF-UHFFFAOYNA-N,chlorocyclohexane,284.784,220.81,-23573.806000000004,1950.191857142854,423.746,2.47615,8.894,11.16,0.0,0.05429,-0.00919,0.00923,-0.0542799999999999,-1.296385532
RXKNNAKAVAHBNK-UHFFFAOYNA-N,4-methyl-2-pentanol,140.098,154.652,-20185.478000000003,1342.725684210527,423.746,2.47615,8.429,13.151,-1.6086900000000002,-0.74067,-0.6036,0.87154,-0.12572,-1.653647026
MTSJLRXXXJHLDI-VEORKLDJNA-N,ethanol,501.578,470.305,-47389.01599999999,-2007.923999999992,423.746,2.47615,9.823,12.034,-3.38704,-1.91826,-0.63268,0.7267,-4.68823,-1.522878745
RCINICONZNJXQF-GXKQXQCDNA-N,water,853.918,688.42,-65372.826,-907.2190000000046,423.746,2.47615,10.745,13.927,-7.399129999999999,-1.7544000000000002,-0.65079,0.70138,-7.86558,-3.0
ISWSIDIOOBJBQZ-UHFFFAOYNA-N,acetonitrile,94.1128,129.012,-18396.136,-452.83640000000014,423.746,2.47615,12.748,10.675,-0.50762,-0.6962400000000001,-0.50762,0.35724,-0.50762,0.987978916
HEFNNWSXXWATRW-YHMJCDSINA-N,dmso,206.284,257.64,-28364.046,-368.3940645161347,423.746,2.47615,8.422,10.397,-1.09538,-1.97443,-0.60249,0.64117,-1.09538,0.583484455
DFXQXFGFOLXAPO-KZFATGLANA-N,2-butoxyethanol,201.566,197.296,-24452.25,-1185.3686470588254,201.323,7.15512,8.389999999999999,12.464,-1.99793,0.20622,-0.57931,0.86055,-1.16392,-0.285079417
GJCOSYZMQJWQCA-UHFFFAOYNA-N,2-methyl-1-pentanol,182.221,210.426,-22708.874,-700.4935121951239,218.229,2.1283,9.971,11.722,-0.36589,-1.33207,-0.36589,0.25068,-0.36589,-0.795880017
MWPLVEDNUUSJAV-UHFFFAOYNA-N,methanol,178.233,211.323,-21536.6,702.9184571428596,221.705,0.00230778,9.038,11.035,0.0,-1.65006,-0.19869,0.1717,0.0,-2.22184875
CKAPSXZOOQJIBF-UHFFFAOYNA-N,water,284.784,220.81,-23579.936,1944.0618571428604,221.705,0.00230778,10.348,13.913,0.0,0.06968,-0.01179,0.01175,-0.06967,-7.620001861
DWCLXOREGBLXTD-UHFFFAOYNA-N,dmf,176.172,185.814,-24508.744,-166.1027142857165,210.485,9.17085,8.028,12.693,-1.91283,-1.86029,-0.5211,0.73212,-0.4488899999999999,-0.983020976
CDVNZMKTJIBBBV-WXRBYKJCNA-N,1-decanol,226.145,221.091,-26606.458,-1523.613333333331,229.713,4.68764,8.357000000000001,14.169,-2.96787,-0.17272,-0.56274,0.87359,-1.22603,-1.334137437
YBZQRYWKYBZZNT-IAUQMDSZNA-N,dichloromethane,113.159,156.52,-21755.944,-1256.128333333334,229.713,4.68764,11.792,10.8,-0.67864,-0.93606,-0.67864,0.65029,-1.22471,-0.469800302
BOCJQSFSGAZAPQ-UHFFFAOYNA-N,1-propanol,242.661,236.9,-25961.022,-789.552653061226,229.713,4.68764,8.262,12.873,-1.08139,-0.12104,-0.5442,0.57065,-1.14909,-2.197224907
OTLNPYWUJOZPPA-BGGKNDAXNA-N,1-tert-butoxy-2-propanol,167.121,179.705,-23155.798,-1280.2397297297248,176.886,4.42105,7.786999999999999,12.577,-2.0337300000000003,0.06165,-0.57191,0.83865,-1.19508,-0.657480695
TYFQFVWCELRYAO-FLKJISBTNA-N,2-propanol,174.196,220.859,-26171.624000000003,-146.05199999999968,176.886,4.42105,10.836,14.378,-2.23352,-0.44549,-0.61773,0.67023,-2.23352,-0.458083731
ZNNLBTZKUZBEKO-PLJOYGPPNA-N,ethanol,494.004,500.081,-42868.146,-969.0119999999952,176.886,4.42105,9.627,12.327,-3.66373,-1.88393,-0.97192,2.57257,-3.01539,-4.328250393
BOCJQSFSGAZAPQ-UHFFFAOYNA-N,acetone,242.661,236.9,-25961.716,-790.2466530612255,176.886,4.42105,8.15,10.695,-1.08185,-0.1207400000000001,-0.54441,0.57078,-1.14964,-1.147744842
KGCNHWXDPDPSBV-UHFFFAOYNA-N,hexane,171.583,186.232,-22599.37,-1988.455846153844,185.302,5.60342,9.332,15.059,-0.96618,-0.81517,-0.48311,0.82881,-0.2649799999999999,-0.146434447
KZTYYGOKRVBIMI-UHFFFAOYNA-N,hexadecane,218.27,232.03,-25737.261999999995,470.521916666672,249.565,6.748279999999999,10.208,14.041,-1.91561,-2.08327,-0.95786,2.42291,0.5072999999999999,-2.318758763
DMIYKWPEFRFTPY-UHFFFAOYNA-N,ethanol,175.014,175.748,-22173.702,-1156.6850000000013,249.565,6.748279999999999,9.31,12.82,-0.54142,-0.01901,-0.54142,0.46843,-0.69185,-20.0
YFLCNWFWKPUGTP-UHFFFAOYNA-N,water,493.386,474.927,-43414.526,-1158.2984999999971,565.438,10.0786,11.168,12.555,-2.57799,-0.9362899999999998,-0.64158,0.67244,-3.69199,-1.508638306
GUCYFKSBFREPBC-UHFFFAOYNA-N,acetonitrile,418.471,404.177,-41770.794,106.5300000000134,521.109,7.11112,11.727,11.001,-1.84482,-4.36292,-0.90671,1.27648,-0.56834,-1.085066556
PEQHIRFAKIASBK-UHFFFAOYNA-N,sulfolane,320.433,334.915,-32512.298,-962.9577999999927,521.109,7.11112,10.707,10.152,0.0,-3.19812,-0.189,0.1631,0.0,-2.709999911
ONUFSRWQCKNVSL-UHFFFAOYNA-N,"cis-1,3-dimethylcyclohexane",334.116,259.855,-29433.884,-14.550200000005134,286.019,0.00124347,8.809,14.828,0.0,0.76069,-0.09219,0.16208,-0.7607,-0.051777658
BMLIZLVNXIYGCK-WXRBYKJCNA-N,octane,198.652,225.906,-25505.646,-1609.8885517241324,229.247,6.17725,10.712,12.967,-0.60226,-0.3930099999999999,-0.60226,0.67491,-1.54852,-3.400000186
FTOAOBMCPZCFFF-XMBMESGPNA-N,ethanol,184.194,197.445,-24886.654,-980.599000000002,216.646,2.03881,9.408,14.186,-1.67137,0.35549,-0.57797,0.71449,-2.67382,-0.300162274
VGEREEWJJVICBM-UHFFFAOYNA-N,"1,4-dioxane",274.273,281.588,-30749.370000000003,-521.4556000000011,216.646,2.03881,9.39,10.663,-2.39308,-0.7341299999999998,-0.67243,0.66845,-2.39308,-0.563162799
WJFKNYWRSNBZNX-UHFFFAOYNA-N,cyclohexane,199.27,217.299,-24424.638,-1178.018,216.646,2.03881,10.243,12.044,0.0,-1.16993,-0.39578,0.27902,-0.39187,-2.036026221
WPYMKLBDIGXBTP-FZOZFQFYNA-N,2-methyl-1-propanol,122.123,151.225,-20850.844,-1119.8446500000027,144.06900000000002,3.4412900000000004,9.387,13.095,-1.09569,-0.1093899999999999,-0.61201,0.6652,-1.09569,0.21005085
AAOVKJBEBIDNHE-UHFFFAOYNA-N,water,284.745,289.604,-29262.224,-711.0063999999984,144.06900000000002,3.4412900000000004,10.795,13.316,-0.62825,-0.92974,-0.62825,0.60141,-1.41014,-3.732027193
NSTQUZVZBUTVPY-UHFFFAOYNA-N,"1,2-dichloroethane",302.283,314.313,-33095.962,304.19400000000314,144.06900000000002,3.4412900000000004,9.62,9.675,-2.81052,0.13727,-0.55908,0.4455,-2.81052,-0.3109583450909091
BBEAQIROQSPTKN-UHFFFAOYNA-N,1-heptanol,202.255,222.477,-22116.11,-8.001014925372147,144.06900000000002,3.4412900000000004,8.893,11.017,0.0,-1.65593,-0.17831,0.16713,0.0,-0.924453039
RXKNNAKAVAHBNK-UHFFFAOYNA-N,water,140.098,154.652,-20217.024,1311.1796842105286,144.06900000000002,3.4412900000000004,9.793,14.174,-1.63811,-0.7213999999999999,-0.62169,0.87649,-0.15166,-0.688246139
VZCYOOQTPOCHFL-KHGLRPAFNA-N,acetophenone,116.073,139.416,-20727.744,-566.6519999999982,144.06900000000002,3.4412900000000004,8.353,11.228,-2.08643,0.92538,-0.58171,0.65239,-2.08643,-0.943095149
SQNZJJAZBFDUTD-UHFFFAOYNA-N,hexadecane,134.221,191.116,-24236.492,-1767.8414193548342,195.175,0.00116513,11.213,12.668,0.0,-2.26828,-0.48162,0.16499,0.0,0.009195885
BLFLLBZGZJTVJG-UHFFFAOYNA-N,"1,4-dioxane",165.191,205.194,-26057.144,-1918.550571428572,203.173,3.8558,9.267,10.812,-1.00867,-0.4738,-0.57526,0.67024,-1.49944,0.445067977
HYZJCKYKOHLVJF-FZOZFQFYNA-N,1-propanol,118.138,147.573,-19909.784000000003,-436.2528888888919,203.173,3.8558,9.873,12.059,0.0,-0.5362899999999999,-0.43423,0.30956,-0.65161,0.197004728
JDCMOHAFGDQQJX-UHFFFAOYNA-N,toluene,272.097,214.933,-25507.044000000005,131.67819999999483,203.173,3.8558,7.145999999999999,10.271,0.0,0.6224799999999999,-0.08391,0.11963,-0.62246,0.293630965
NIHNNTQXNPWCJQ-UHFFFAOYNA-N,decane,166.222,200.685,-21553.1,-150.96899999999732,203.173,3.8558,10.419,12.973,0.0,-1.58554,-0.32139,0.17629,0.0,-0.612530575
LPNBBFKOUUSUDB-BGGKNDAXNA-N,1-octanol,136.15,170.201,-22382.918,-1590.4144000000017,203.173,3.8558,9.641,12.814,-1.09983,-0.49996,-0.6125,0.67083,-1.09983,-0.354170449
YVUQSNJEYSNKRX-VJSLDGLSNA-N,ethanol,461.553,464.649,-39397.056,-337.05312499999127,563.406,6.24207,10.162,11.469,-0.64442,-2.58791,-0.64442,0.64125,-2.11135,-1.694672367