InChIkey,Solvent,MW,SASA,G_sol,DeltaG_sol,Volume,sol_dip,LsoluHsolv,LsolvHsolu,O_charges,C_charges,Most_neg,Most_pos,Het_charges,LogS
RGHHSNMVTDWUBI-UHFFFAOYNA-N,methanol,122.123,152.368,-20614.284,-954.1959999999964,239.68,2.11254,9.67,12.497,-1.07956,-0.1305599999999999,-0.59404,0.46854,-1.07956,0.530466714
GVEPBJHOBDJJJI-UHFFFAOYNA-N,4-methyl-2-pentanol,202.255,227.244,-23047.408000000003,-483.4882040816301,239.68,2.11254,9.01,11.73,0.0,-1.64151,-0.15633,0.16707,0.0,-2.122798373
XRHGYUZYPHTUJZ-BGGKNDAXNA-N,3-methyl-1-butanol,156.568,170.469,-22835.736,-1434.8753333333298,239.68,2.11254,9.087,13.118,-1.0837,0.07231,-0.60317,0.6682,-1.1722,-0.915657675
BBEAQIROQSPTKN-UHFFFAOYNA-N,dmso,202.255,222.477,-22116.606,-8.497014925371332,239.68,2.11254,6.946,9.201,0.0,-1.65734,-0.17835,0.16727,0.0,-0.343490203
CIWBSHSKHKDKBQ-JLAZNSOCNA-N,2-propanol,176.126,179.069,-24669.746000000003,-738.7025000000067,181.839,5.693289999999999,9.456,12.861,-2.87784,0.72588,-0.56521,0.63676,-2.87784,-2.038248429
MWPLVEDNUUSJAV-UHFFFAOYNA-N,toluene,178.233,211.323,-21523.838,715.6804571428584,181.839,5.693289999999999,7.93,8.597999999999999,0.0,-1.56946,-0.19361,0.1631,0.0,-1.161150909
MWPLVEDNUUSJAV-UHFFFAOYNA-N,hexane,178.233,211.323,-21520.79,718.7284571428572,221.713,0.000629298,9.685,12.524,0.0,-1.55244,-0.19262,0.16125,0.0,-2.0
MFYSYFVPBJMHGN-ZPOLXVRWNA-N,peg400,360.449,341.755,-35726.376,-904.2405,221.713,0.000629298,9.188,11.368,-2.80887,-2.32929,-0.62916,0.63728,-2.80887,-1.660000005
GJCOSYZMQJWQCA-UHFFFAOYNA-N,cyclooctane,182.221,210.426,-22607.778,-599.3975121951225,221.713,0.000629298,10.324,13.121,-0.34796,-1.27248,-0.34796,0.26181,-0.34796,-0.420216403
KGCNHWXDPDPSBV-UHFFFAOYNA-N,methanol,171.583,186.279,-22662.71,-2051.795846153844,221.713,0.000629298,8.776,13.273,-1.04111,-0.79937,-0.52062,0.85863,-0.34002,0.353153486
ILUJQPXNXACGAN-BGGKNDAXNA-N,2-isopropoxyethanol,152.149,178.992,-23284.852000000003,-401.1797837837912,177.244,5.36019,9.191,11.348,-1.46715,-0.07621,-0.61374,0.7016,-1.46715,-0.135675182
GPSDUZXPYCFOSQ-BGGKNDAXNA-N,methanol,136.15,170.243,-22028.702,-835.1170857142861,177.244,5.36019,9.605,12.603,-1.09581,-0.4893599999999999,-0.6139,0.66073,-1.09581,0.428182312
WJFKNYWRSNBZNX-UHFFFAOYNA-N,hexadecane,199.27,217.299,-24494.824,-1248.2040000000015,177.244,5.36019,10.35,11.847,0.0,-1.16992,-0.39578,0.27902,-0.39187,-2.245185583
HYZJCKYKOHLVJF-FZOZFQFYNA-N,dichloromethane,118.138,147.573,-19881.426,-407.8948888888881,177.244,5.36019,10.462,9.362,0.0,-0.53332,-0.41949,0.30523,-0.6426999999999999,-1.044148407
CMWTZPSULFXXJA-GTNTULIANA-N,1-heptanol,230.263,260.642,-28150.034,-464.0897714285675,278.413,2.98156,9.365,11.504,-1.48006,-1.09773,-0.61385,0.64004,-1.48006,-0.826094969
FZERHIULMFGESH-BGGKNDAXNA-N,1-octanol,135.165,175.279,-22769.578,-662.8818333333365,169.631,5.23404,10.196,11.983,-0.63539,-0.6778199999999999,-0.63539,0.66629,-1.09069,-0.099371567
ZUOUZKKEUPVFJK-UHFFFAOYNA-N,1-octanol,154.211,198.095,-21942.788,-1124.1588148148148,169.631,5.23404,10.134,12.121,0.0,-1.59287,-0.17889,0.16259,0.0,-0.13685538
ZEYHEAKUIGZSGI-BGGKNDAXNA-N,2-propoxyethanol,152.149,180.582,-23168.324,-1681.8020689655168,178.135,3.58915,9.146,11.432,-1.477,-0.09633,-0.61505,0.68089,-1.477,-0.539190985
RZVHIXYEVGDQDX-UHFFFAOYNA-N,butanone,208.216,221.415,-23784.244,-219.77200000000084,178.135,3.58915,8.085999999999999,10.894,-1.10518,-0.30562,-0.55274,0.56087,-1.10518,-2.229483334
SWJPEBQEEAHIGZ-UHFFFAOYNA-N,hexane,235.906,168.859,-20949.636,-1930.2031764705896,178.135,3.58915,10.415,14.1,0.0,-0.5367,-0.14053,0.17722,-0.17208,-0.182045324
PZPZDEIASIKHPY-UHFFFAOYNA-N,ethanol,242.234,257.431,-27611.936,-889.8113333333386,275.91700000000003,5.31303,8.978000000000002,12.598,-1.64937,-0.7106500000000001,-0.59006,0.87954,-1.2445,-1.658286963
CKAPSXZOOQJIBF-UHFFFAOYNA-N,"1,2-dichloroethane",284.784,220.81,-23571.422,1952.57585714286,239.638,0.00290532,9.348999999999998,10.39,0.0,0.05947,-0.01006,0.01012,-0.05946,-1.440452444
WLJVXDMOQOGPHL-BGGKNDAXNA-N,water,136.15,171.504,-22208.766,-1169.712222222217,239.638,0.00290532,11.758,13.751,-1.11142,-0.50096,-0.61291,0.68586,-1.11142,-0.888745408
HVYWMOMLDIMFJA-DPAQBDIFNA-N,acetonitrile,386.66,426.074,-39974.166,-1212.7052727272749,239.638,0.00290532,14.057,10.595,-0.629,-6.0446,-0.629,0.33988,-0.629,-2.522878745
DTXVKPOKPFWSFF-MDVJYLRGNA-N,cyclohexanone,129.549,145.76,-19999.76,-108.88649999999689,239.638,0.00290532,8.674,10.547,0.0,-0.01792,-0.46366,0.2812,-0.94186,-1.359187294
YSSSPARMOAYJTE-UHFFFAOYNA-N,1-butanol,360.406,358.462,-35106.746,-92.34505882352823,239.638,0.00290532,10.125,12.140999999999998,-2.61759,-1.05345,-0.48497,0.2003,-2.61759,-3.0
XVULBTBTFGYVRC-HHUCQEJWNA-N,ethanol,308.503,341.08,-36214.32000000001,-2490.0460000000094,239.638,0.00290532,11.39,12.946,-1.2747000000000002,-4.55845,-0.64595,0.43042,-1.2747000000000002,-0.307209502
RXKNNAKAVAHBNK-UHFFFAOYNA-N,toluene,140.098,154.652,-20098.206,1429.9976842105316,239.638,0.00290532,7.251999999999999,10.693,-1.5054,-0.80174,-0.54317,0.85278,-0.0399300000000001,-1.293282218
JZFPYUNJRRFVQU-VEWCPZSHNA-N,ethanol,282.222,276.356,-29483.662,-1346.5706315789466,239.638,0.00290532,9.323,11.979,-1.10023,0.58172,-0.6037,0.70499,-2.53761,-0.620534856
DAUAQNGYDSHRET-KZFATGLANA-N,methanol,182.176,208.385,-26425.618,-2076.201846153843,210.341,3.42737,9.509,11.884,-1.84956,-0.06092,-0.61554,0.67138,-1.84956,-0.735
XMTQQYYKAHVGBJ-XWKXFZRBNA-N,thf,233.097,243.588,-26806.22,-1821.5284800000009,251.68400000000003,7.17699,8.92,11.47,-0.66028,-0.26191,-0.66028,0.68161,-1.63181,-0.430506677
CWRYPZZKDGJXCA-UHFFFAOYNA-N,dmso,154.211,187.008,-20896.3,465.62880000000587,192.388,1.6274,7.771,9.518,0.0,-1.64341,-0.29896,0.17014,0.0,-0.309740619
QUEKGYQTRJVEQC-KZFATGLANA-N,1-heptanol,201.566,196.433,-25239.778,-1731.8966086956534,197.95,3.1076900000000003,8.418,13.385,-2.04638,0.2489799999999999,-0.56645,0.86597,-1.21696,-0.26760624
XMTQQYYKAHVGBJ-XWKXFZRBNA-N,"2,2,4-trimethylpentane",233.097,243.633,-27020.254,-2035.5624800000005,197.95,3.1076900000000003,10.245,13.223,-0.59228,-0.24271,-0.59228,0.67203,-1.56295,-3.790000026
GJCOSYZMQJWQCA-UHFFFAOYNA-N,nonane,182.221,210.426,-22603.316,-594.935512195123,197.95,3.1076900000000003,10.686,12.728,-0.34796,-1.27246,-0.34796,0.26181,-0.34796,-0.619788758
XMTQQYYKAHVGBJ-XWKXFZRBNA-N,cyclohexane,233.097,242.933,-27032.394,-2047.7024799999965,197.95,3.1076900000000003,10.042,13.216,-0.59556,-0.2431599999999999,-0.59556,0.67252,-1.56645,-3.609999808
CDVNZMKTJIBBBV-WXRBYKJCNA-N,2-ethoxyethanol,226.145,221.321,-26646.716,-1563.8713333333253,230.216,5.75065,7.676,13.405,-2.98077,-0.1657699999999999,-0.57298,0.87637,-1.2319,-0.013835615
CWRYPZZKDGJXCA-UHFFFAOYNA-N,2-methyl-2-propanol,154.211,187.008,-20856.622,505.3068000000021,230.216,5.75065,9.802,11.664,0.0,-1.64416,-0.29902,0.17023,0.0,-0.736075802
PJANXHGTPQOBST-VAWYXSNFNA-N,hexadecane,180.249,234.07,-25074.27,-1640.9037777777776,238.022,0.00263851,10.335,12.945,0.0,-1.84626,-0.18817,0.16138,0.0,-1.123925766
YGSDEFSMJLZEOE-BGGKNDAXNA-N,dmf,138.123,157.143,-21904.772,-757.9593999999997,238.022,0.00263851,8.469000000000001,10.861,-1.58292,0.1443299999999999,-0.59021,0.69108,-1.58292,0.628491105
BBEAQIROQSPTKN-UHFFFAOYNA-N,1-tert-butoxy-2-propanol,202.255,222.477,-22112.146,-4.037014925372205,238.022,0.00263851,8.43,10.103,0.0,-1.64638,-0.17801,0.16617,0.0,-0.631493102
RJKGJBPXVHTNJL-UHFFFAOYNA-N,4-methyl-2-pentanol,173.171,192.048,-22433.598,-283.0828780487791,197.675,7.00658,8.769,12.3,-1.00954,-1.06439,-0.50657,0.85633,-0.1532099999999999,-0.60803212
XRHGYUZYPHTUJZ-BGGKNDAXNA-N,ethanol,156.568,170.601,-22760.522,-1359.6613333333337,167.556,2.05694,9.41,13.016,-1.0876,0.0739799999999999,-0.60741,0.67019,-1.17684,-0.76949371
KDYFGRWQOYBRFD-AOTPWWKUNA-N,acetophenone,118.089,143.884,-20485.962,308.0894285714239,167.556,2.05694,9.94,11.058,-2.17275,0.60912,-0.60637,0.66789,-2.17275,-1.515700161
WTJMJAZVXNFVHB-LBOYIXSDNA-N,water,509.428,483.864,-46123.016,-512.5969999999943,167.556,2.05694,11.018,12.81,-2.55586,-1.53269,-0.61972,0.67443,-3.79645,-1.657577319
GSBSDUZVSCTUKA-PKSOQXRJNA-N,2-propanol,288.345,296.094,-28895.886,-219.5550666666677,167.556,2.05694,9.073,11.206,-1.11353,-1.77873,-0.60958,0.66732,-1.11353,-1.22184875
KDYFGRWQOYBRFD-AOTPWWKUNA-N,water,118.089,140.94,-21059.974,-265.9225714285785,167.556,2.05694,11.63,15.755,-2.18119,0.60294,-0.60925,0.66399,-2.18119,-0.2
DWMREKMVXIFPFM-RWWBHRBBNA-N,benzene,351.394,321.784,-33962.788,-1929.7500833333324,167.556,2.05694,8.186,8.971,-2.88749,-0.90202,-0.94576,2.46498,-1.68885,-2.744078709
YLQWCDOCJODRMT-UHFFFAOYNA-N,nonane,180.206,204.757,-22236.196,-418.912279069762,212.595,4.24095,9.420000000000002,13.368,-0.49295,-0.7983399999999999,-0.49295,0.56789,-0.49295,-0.920818754
ZZUFCTLCJUWOSV-CDZRGBSPNA-N,1-octanol,330.742,305.402,-31633.182,-974.2634999999972,333.58700000000005,6.667800000000001,9.155,12.345,-3.26084,-0.5234000000000001,-0.99026,2.58073,-2.03766,-2.090000009
KZNICNPSHKQLFF-JSWHHWTPNA-N,thf,99.089,124.011,-18345.728000000003,-406.7163333333374,111.022,3.04181,9.03,13.541,-1.16389,0.4750099999999999,-0.58221,0.63717,-1.64395,0.063323612
NIHNNTQXNPWCJQ-UHFFFAOYNA-N,2-propanol,166.222,200.685,-21642.9,-240.76900000000023,111.022,3.04181,10.018,11.965,0.0,-1.66678,-0.32633,0.18473,0.0,-0.9070311
YRHRIQCWCFGUEQ-UHFFFAOYNA-N,1-decanol,212.266,221.762,-24539.336,-1346.245178571422,236.332,3.06173,9.128,11.947,-0.58163,-0.7970499999999999,-0.58163,0.58674,-0.5906,-1.770459934
VHNQIURBCCNWDN-PPMNOVJINA-N,ethanol,109.13,143.646,-20233.246,153.7663333333403,133.442,4.26109,10.226,12.392,0.0,-0.02991,-0.56992,0.38915,-1.59204,0.507819735
SQNZJJAZBFDUTD-UHFFFAOYNA-N,1-heptanol,134.221,190.948,-22093.174,375.4765806451651,133.442,4.26109,10.677,11.64,0.0,-2.34396,-0.49064,0.17067,0.0,-0.144718572
LNEPOXFFQSENCJ-UHFFFAOYNA-N,"1,2-propanediol",375.87,394.6,-36635.708,-1393.7762222222227,443.951,3.82856,9.475,11.067,-1.22234,-2.08718,-0.6264,0.61074,-1.87172,-1.926727101
BBEAQIROQSPTKN-UHFFFAOYNA-N,hexadecane,202.255,222.477,-22095.14,12.968985074629018,443.951,3.82856,9.344,12.089,0.0,-1.57045,-0.17523,0.15845,0.0,-0.926648298
QVPPQDAPAFWTCK-DZQFSFFNNA-N,2-propanol,306.769,315.984,-30688.634,-789.5092000000004,336.855,7.81434,9.263,12.181,-0.57471,0.21301,-0.69871,0.58516,-2.67237,-1.823293637
IJFXRHURBJZNAO-BGGKNDAXNA-N,acetonitrile,138.123,160.753,-21867.764,-724.5206666666709,336.855,7.81434,11.678999999999998,10.943,-1.57258,0.10949,-0.60245,0.65285,-1.57258,-0.696976253
WURBFLDFSFBTLW-UHFFFAOYNA-N,benzene,210.232,239.927,-26285.412,-1274.7662040816283,247.818,0.00233895,8.089,10.422,-0.95441,-0.6824600000000001,-0.47721,0.42923,-0.95441,0.23
BXAOUWIVXLQYOZ-SPEPDGBUNA-N,toluene,443.542,453.364,-45346.21000000001,-760.8438666666771,247.818,0.00233895,8.929,9.666,-2.46915,-2.19383,-0.60874,0.72364,-3.77944,-2.0
RWCCWEUUXYIKHB-UHFFFAOYNA-N,hexane,182.221,219.324,-23852.306,-454.66599999999744,247.818,0.00233895,10.189,14.402,-0.52007,-1.05632,-0.52007,0.55073,-0.52007,-0.737227113
BBEAQIROQSPTKN-UHFFFAOYNA-N,aniline,202.255,222.477,-22108.378,-0.2690149253721756,242.492,0.00131424,7.095999999999999,8.65,0.0,-1.64136,-0.17785,0.16567,0.0,-0.442204985
GVIJJXMXTUZIOD-UHFFFAOYNA-N,methanol,216.315,223.654,-23836.678,-838.0403157894725,242.492,0.00131424,9.819,11.547,0.0,-1.29458,-0.14271,0.17761,-0.09855,-1.955571375
WURBFLDFSFBTLW-UHFFFAOYNA-N,heptane,210.232,239.927,-26563.672,-1553.0262040816306,242.492,0.00131424,9.467,14.09,-0.94404,-0.68374,-0.47204,0.42539,-0.94404,-1.350000002
QIQXTHQIDYTFRH-LILDFLRNNA-N,decane,284.481,389.328,-36776.084,370.2011249999996,242.492,0.00131424,11.275,14.881,-1.06241,-4.07379,-0.56382,0.64465,-1.06241,-1.74609243
DKYWVDODHFEZIM-GPQMBLKYNA-N,methanol,254.285,284.784,-29971.812000000005,-1141.9002222222189,308.367,4.31816,9.432,12.808,-1.68837,-0.8963800000000001,-0.60936,0.64418,-1.68837,-0.032030088
HVYWMOMLDIMFJA-DPAQBDIFNA-N,methanol,386.66,422.5,-41307.598,-2546.137272727276,545.003,3.04979,11.737,12.112,-0.61975,-6.09539,-0.61975,0.34038,-0.61975,-1.852686502
SJEBAWHUJDUKQK-UHFFFAOYNA-N,2-methyl-1-propanol,236.27,258.643,-27313.592,-821.883759999997,545.003,3.04979,8.283,13.048,-1.10999,-0.9256,-0.55965,0.56765,-1.10999,-1.342999997
GRWAIJBHBCCLGS-FZOZFQFYNA-N,1-propanol,128.09,144.749,-21184.69,-1103.768500000002,545.003,3.04979,9.509,14.503,-1.0290400000000002,0.35203,-0.55971,0.64666,-1.47433,-0.210984872
BBYDXOIZLAWGSL-BGGKNDAXNA-N,methanol,140.114,158.548,-22169.948000000004,-1568.8500000000058,152.857,2.10847,9.49,13.228,-1.09401,0.14457,-0.61225,0.67664,-1.25618,-0.120544054
JZFDKGFWNSQAHU-GPQMBLKYNA-N,1-propanol,254.285,281.637,-29939.518000000004,-532.8347999999969,152.857,2.10847,9.179,12.763000000000002,-1.64086,-0.89217,-0.59066,0.65892,-1.64086,0.098206536
WJFKNYWRSNBZNX-UHFFFAOYNA-N,1-decanol,199.27,217.299,-25057.214,-1810.594000000001,152.857,2.10847,9.939,10.979,0.0,-1.21429,-0.39816,0.29503,-0.42548,-0.982207255
KZTYYGOKRVBIMI-UHFFFAOYNA-N,2-propoxyethanol,218.27,232.128,-27212.448000000004,-1004.6640833333367,152.857,2.10847,9.416,11.83,-1.98452,-2.09902,-0.99231,2.4532,0.4686799999999997,-0.647790265
VPHHJAOJUJHJKD-KZFATGLANA-N,2-pentanol,191.013,187.61,-23534.676,-1887.002969696965,189.143,3.5318,9.073,12.912,-1.0677,0.2378899999999999,-0.59218,0.66516,-1.17881,-0.644648854
BBEAQIROQSPTKN-UHFFFAOYNA-N,cyclopentanol,202.255,222.477,-22118.39,-10.281014925370982,242.478,0.00169463,8.876,11.296,0.0,-1.66189,-0.17848,0.16773,0.0,-0.939135793
JBKVHLHDHHXQEQ-QDQILVOLNA-N,2-propanol,113.159,149.727,-20448.056000000004,-922.9428000000044,242.478,0.00169463,11.422,13.079,-0.722,-0.6605300000000001,-0.722,0.6102,-1.15862,0.479572203
RXKNNAKAVAHBNK-UHFFFAOYNA-N,2-butanol,140.098,154.652,-20194.276,1333.9276842105282,147.221,0.876927,8.382,13.217,-1.61795,-0.73471,-0.60925,0.87311,-0.1338199999999999,-1.514278574
KZTYYGOKRVBIMI-UHFFFAOYNA-N,1-heptanol,218.27,232.228,-25695.042000000005,512.7419166666623,249.678,7.483840000000001,9.887,12.801,-1.98823,-2.0996,-0.99425,2.45465,0.46642,-1.454415135
SQNZJJAZBFDUTD-UHFFFAOYNA-N,2-methyl-1-propanol,134.221,191.291,-22778.894,-310.2434193548361,195.326,0.00426066,10.551,11.815,0.0,-2.35043,-0.49096,0.17114,0.0,-0.337555015
GVPWHKZIJBODOX-UHFFFAOYNA-N,chloroform,246.385,285.62,-28206.232,-372.9576000000052,195.326,0.00426066,10.003,8.546000000000001,0.0,-2.17681,-0.32739,0.18564,-0.14562,0.298035404
LXCFILQKKLGQFO-UHFFFAOYNA-N,1-pentanol,152.149,181.592,-23168.686,-1570.846222222226,177.375,1.6722400000000002,9.592,12.583,-1.49236,-0.09503,-0.61158,0.68207,-1.49236,0.133036556
BMLIZLVNXIYGCK-WXRBYKJCNA-N,water,198.652,226.125,-25251.83,-1356.0725517241372,229.409,7.50401,11.355,12.963,-0.68031,-0.4359100000000001,-0.68031,0.68324,-1.61042,-2.913180339
YRHRIQCWCFGUEQ-UHFFFAOYNA-N,m-xylene,212.266,221.762,-24113.57,-920.479178571426,229.409,7.50401,7.938000000000001,9.486,-0.54637,-0.80167,-0.54637,0.56887,-0.54393,-1.343508187
WQZGKKKJIJFFOK-GASJEMHNNA-N,dmso,180.157,186.978,-25350.478,-646.2091999999975,193.886,3.04432,8.831999999999999,11.779,-3.3124,0.40972,-0.57477,0.35336,-3.3124,0.428289173
SEEPANYCNGTZFQ-YHMJCDSINA-N,1-octanol,250.275,248.939,-26838.992,781.9496470588274,267.988,9.30087,9.707,11.928,-1.96077,-0.54798,-0.98319,2.55354,-1.56417,-4.027153873
LVHBHZANLOWSRM-HJYFZBQUNA-N,acetone,130.1,153.306,-22026.872,-775.844499999992,267.988,9.30087,9.472,11.725,-2.17896,0.65643,-0.61729,0.67344,-2.17896,-0.170534952
DWQOTEPNRWVUDA-HCKMINDGNA-N,water,242.234,245.107,-28007.389999999992,-784.1179999999877,267.988,9.30087,10.722,13.451999999999998,-1.55978,-0.46686,-0.59592,0.66611,-1.70568,-3.329000354
FPWNLURCHDRMHC-UHFFFAOYNA-N,1-octanol,188.656,217.886,-23314.984,-1350.2471999999907,225.357,2.39521,9.895,12.134,0.0,-1.38929,-0.17829,0.1789,-0.10876,-0.22
LULAYUGMBFYYEX-BGGKNDAXNA-N,water,156.568,170.48,-22173.968,-987.4668571428556,225.357,2.39521,10.666,13.946000000000002,-1.0847,0.07471,-0.60773,0.66608,-1.17336,-2.619999995
OGJPXUAPXNRGGI-QWOVJGMINA-N,acetone,319.335,319.14,-33152.648,-641.2673333333369,361.197,11.8689,9.103,9.635,-1.74681,-0.38723,-0.64122,0.74293,-2.87023,-3.334141449
CPJSUEIXXCENMM-WXRBYKJCNA-N,water,179.218,223.024,-26308.982,-254.88757142856767,361.197,11.8689,11.489,12.717,-1.09218,-0.94607,-0.66457,0.66465,-1.52762,-2.326770118
NGTRZJDYCCOXBA-UHFFFAOYNA-N,methanol,215.312,251.076,-27053.954,-1901.7563999999984,361.197,11.8689,10.12,11.157,0.0,-1.81535,-0.47392,0.2919,-0.5714600000000001,-0.255675925
DWQOTEPNRWVUDA-HCKMINDGNA-N,ethanol,242.234,260.832,-28768.374,-1545.1019999999917,361.197,11.8689,9.24,12.194,-1.56684,-0.3976999999999999,-0.60679,0.67462,-1.76706,-1.158927462
GSBSDUZVSCTUKA-PKSOQXRJNA-N,cyclohexane,288.345,304.823,-28994.994,-318.6630666666715,361.197,11.8689,9.216,12.276,-1.05684,-1.70782,-0.56324,0.63771,-1.05684,-2.1124032833770494
NSTQUZVZBUTVPY-UHFFFAOYNA-N,butanone,302.283,314.949,-34431.844000000005,-1031.688000000002,338.5,6.58531,8.884,9.867,-2.83439,0.13523,-0.56775,0.44958,-2.83439,-0.7329897903157895
YRHRIQCWCFGUEQ-UHFFFAOYNA-N,cyclooctane,212.266,221.762,-24062.774,-869.6831785714239,338.5,6.58531,9.291,13.305,-0.53866,-0.8025,-0.53866,0.56473,-0.5336000000000001,-2.006134361
QQVIHTHCMHWDBS-FLKJISBTNA-N,1-butanol,166.133,182.549,-24343.564,-1663.7958461538474,338.5,6.58531,9.092,13.474,-2.16455,0.71754,-0.60286,0.67393,-2.16455,-1.40356752
MHKKFFHWMKEBDW-UHFFFAOYNA-N,methanol,228.201,239.026,-28155.236,-189.356857142855,338.5,6.58531,9.805,13.866,-2.97766,0.58037,-0.57876,0.67112,-2.97766,-2.084383283
SJEBAWHUJDUKQK-UHFFFAOYNA-N,2-pentanol,236.27,258.583,-27241.518,-749.8097599999965,338.5,6.58531,8.44,12.989,-1.1053799999999998,-0.92771,-0.55731,0.5664,-1.1053799999999998,-1.296999998
MWPLVEDNUUSJAV-UHFFFAOYNA-N,2-propoxyethanol,178.233,211.323,-21529.692000000003,709.8264571428554,338.5,6.58531,8.453999999999999,10.028,0.0,-1.63123,-0.1974,0.16972,0.0,-1.53665769
YZMCKZRAOLZXAZ-WYUMXYHSNA-N,water,278.328,282.801,-29198.566000000003,-446.0159999999996,338.5,6.58531,11.258,13.044,-1.98864,-1.15886,-0.99649,2.57951,-1.79823,-2.279000036
CIWBSHSKHKDKBQ-JLAZNSOCNA-N,acetone,176.126,179.111,-24075.538,-144.49450000000434,182.015,5.97456,9.113,10.474,-2.89558,0.75038,-0.5858,0.66496,-2.89558,-2.397940009
NCOSMKWGNCJPCR-YLHGWYNBNA-N,acetonitrile,549.111,528.764,-46017.85,-120.72999999999593,678.8729999999999,8.04963,11.736,10.08,-1.2988300000000002,-3.30169,-0.66318,0.62554,-2.23026,-1.397940009
WURBFLDFSFBTLW-UHFFFAOYNA-N,butyronitrile,210.232,239.808,-25821.656,-811.010204081631,247.702,0.0026387,10.385,11.438,-1.01377,-0.67285,-0.5069,0.44996,-1.01377,0.171140096
SKZKKFZAGNVIMN-FSHFIPFONA-N,2-butanol,137.138,161.072,-21211.026,-711.8141176470563,156.651,7.13875,9.692,12.678,-1.1913,0.06326,-0.69444,0.64871,-1.73411,-0.42136079
CGIGDMFJXJATDK-QWOVJGMINA-N,"1,4-dioxane",357.793,353.907,-36316.658,-1647.664499999999,401.839,3.04832,8.483,10.417,-1.94649,-0.69824,-0.55357,0.64105,-2.30043,-0.482630355
MWPLVEDNUUSJAV-UHFFFAOYNA-N,o-xylene,178.233,211.323,-21524.32,715.198457142862,401.839,3.04832,7.706,8.692,0.0,-1.57481,-0.19393,0.16368,0.0,-1.159911943
BSYNRYMUTXBXSQ-WXRBYKJCNA-N,1-heptanol,180.16,198.043,-25043.860000000004,-869.5781500000121,204.904,3.02894,9.215,13.043,-2.06795,0.3280300000000001,-0.5937,0.71577,-2.06795,-0.252526003
BXAOUWIVXLQYOZ-SPEPDGBUNA-N,acetonitrile,443.542,457.821,-43781.494000000006,803.8721333333233,556.875,3.43783,12.322,10.98,-2.6733,-2.16119,-0.66623,0.74824,-3.99466,-1.657577319
CWRYPZZKDGJXCA-UHFFFAOYNA-N,2-methyl-2-butanol,154.211,187.008,-20957.858,404.0708000000013,192.392,1.5467300000000002,9.7,11.646,0.0,-1.62456,-0.29741,0.16806,0.0,-0.580947216
PEQHIRFAKIASBK-UHFFFAOYNA-N,acetone,320.433,334.609,-32356.922,-807.5817999999927,192.392,1.5467300000000002,10.183,10.045,0.0,-3.18943,-0.18843,0.16283,0.0,-2.84999986
LDHQCZJRKDOVOX-GSMIJIFMNA-N,hexane,86.0902,125.178,-19586.738,-534.3269999999975,192.392,1.5467300000000002,10.633,15.262,-1.06089,-0.17678,-0.56941,0.66362,-1.06089,0.029383778