InChIkey,Solvent,MW,SASA,G_sol,DeltaG_sol,Volume,sol_dip,LsoluHsolv,LsolvHsolu,O_charges,C_charges,Most_neg,Most_pos,Het_charges,LogS
QELSKZZBTMNZEB-UHFFFAOYNA-N,methanol,180.203,220.233,-25493.72,-615.4325454545469,220.457,4.52219,9.752,12.562,-1.52758,-0.6499000000000001,-0.61569,0.69036,-1.52758,0.567519381
QIQXTHQIDYTFRH-LILDFLRNNA-N,heptane,284.481,383.89,-37503.344,-357.0588749999952,220.457,4.52219,11.478,14.806,-1.05753,-4.04282,-0.55927,0.64093,-1.05753,-1.437086609
PCMORTLOPMLEFB-VENOTMPWNA-N,water,224.213,251.689,-28674.028,91.19800000000032,220.457,4.52219,10.565,13.041,-2.3470500000000003,-0.1577699999999999,-0.62577,0.68213,-2.3470500000000003,-3.0
WZWYJBNHTWCXIM-ZTGFOJEANA-N,dimethylacetamide,337.368,306.452,-31600.714,-819.0366666666632,220.457,4.52219,8.599,10.523,-2.98531,-0.79233,-0.96605,2.5348,-1.57744,-0.941675204
PBZQTKRWYXTXIS-YQFGMCEENA-N,methanol,464.606,472.908,-42770.102,-405.6686666666574,220.457,4.52219,9.371,11.589,-1.2903600000000002,-3.39494,-0.65341,0.65362,-2.1661900000000003,-1.51055089
CMWTZPSULFXXJA-GTNTULIANA-N,water,230.263,261.492,-28924.734,-1238.7897714285682,220.457,4.52219,10.78,12.758,-1.49942,-1.11085,-0.60977,0.64592,-1.49942,-4.004242147
GSDSWSVVBLHKDQ-QVNXLTHBNA-N,2-propanol,361.372,345.027,-34825.53200000001,-1236.6216666666803,399.981,11.4864,9.266,11.773,-2.07644,-0.4622999999999999,-0.63836,0.74375,-3.03781,-2.074825182
ISAOCJYIOMOJEB-UHFFFAOYNA-N,4-methyl-2-pentanol,212.248,240.372,-26828.25,-1156.4773157894742,399.981,11.4864,9.402,12.686,-1.08984,-1.06326,-0.55142,0.51239,-1.08984,-1.738566945
KZTYYGOKRVBIMI-UHFFFAOYNA-N,nonane,218.27,232.157,-27207.634,-999.850083333331,249.84,6.74725,10.306,14.097,-1.9155,-2.08338,-0.95781,2.42282,0.5073200000000001,-2.382999659
BSYNRYMUTXBXSQ-WXRBYKJCNA-N,chloroform,180.16,198.043,-25768.45600000001,-1594.1741500000137,205.03,2.81008,10.23,9.561,-2.03698,0.32299,-0.58722,0.70761,-2.03698,-0.224109081
PEQHIRFAKIASBK-UHFFFAOYNA-N,acetonitrile,320.433,335.081,-34519.106,-2969.7657999999938,205.03,2.81008,12.721,10.755,0.0,-3.19692,-0.18887,0.16308,0.0,-3.250000251
KZTYYGOKRVBIMI-UHFFFAOYNA-N,tert-butylcyclohexane,218.27,232.257,-25437.702,770.0819166666697,205.03,2.81008,9.907,14.082999999999998,-1.91551,-2.08324,-0.95777,2.42283,0.5073199999999998,-2.524328812
WPYMKLBDIGXBTP-FZOZFQFYNA-N,1-hexanol,122.123,151.225,-20808.752,-1077.7526500000022,144.06900000000002,3.40405,9.474,13.041,-1.09277,-0.10971,-0.60895,0.66381,-1.09277,0.209883647
NIHNNTQXNPWCJQ-UHFFFAOYNA-N,methanol,166.222,200.685,-21519.828,-117.69700000000012,144.06900000000002,3.40405,9.968,11.751,0.0,-1.67165,-0.32662,0.1852,0.0,-0.981277097
LINPIYWFGCPVIE-UHFFFAOYNA-N,methanol,197.448,183.779,-22430.372,200.47049999999945,184.85,1.79133,9.569,12.286,-0.45154,-0.1560199999999999,-0.45154,0.35597,-0.60258,0.744605875
ZWLPBLYKEWSWPD-BGGKNDAXNA-N,ethanol,136.15,166.865,-22104.042,-1095.9592499999962,165.158,3.66194,9.806,12.734,-1.1017,-0.49248,-0.62678,0.68377,-1.1017,0.318063335
HEFNNWSXXWATRW-YHMJCDSINA-N,2-propanol,206.284,257.98,-28642.026,-646.3740645161306,280.73900000000003,3.01855,10.54,12.45,-1.09992,-1.97733,-0.60653,0.64322,-1.09992,0.525518865
QIQXTHQIDYTFRH-LILDFLRNNA-N,2-propanol,284.481,371.051,-38152.582,-1006.296875,280.73900000000003,3.01855,10.879,13.719,-1.11862,-4.04619,-0.61581,0.67191,-1.11862,-0.568827727
ZUOUZKKEUPVFJK-UHFFFAOYNA-N,chloroform,154.211,198.095,-21805.852,-987.2228148148132,280.73900000000003,3.01855,11.12,8.582,0.0,-1.57166,-0.17657,0.16068,0.0,0.581349209
QYSPLQLAKJAUJT-HCKMINDGNA-N,benzene,331.345,311.839,-31142.526,-408.3799999999974,349.464,6.117050000000001,8.225000000000001,9.676,-2.87307,-0.7141200000000001,-0.93353,2.47641,-1.85263,-3.03456948
GJCOSYZMQJWQCA-UHFFFAOYNA-N,2-propoxyethanol,182.221,210.478,-22912.69,-904.3095121951264,349.464,6.117050000000001,9.663,10.645,-0.36452,-1.32774,-0.36452,0.25151,-0.36452,-0.317553732
BMLIZLVNXIYGCK-WXRBYKJCNA-N,chlorobenzene,198.652,226.028,-25325.95,-1430.192551724136,228.727,6.91531,9.228,8.88,-0.64691,-0.4176999999999999,-0.64691,0.68057,-1.58521,-1.780000002
RISDZDVHYCURHD-JZUIEBFJNA-N,methanol,877.042,757.907,-70811.416,-1314.9792000000016,228.727,6.91531,8.654,11.207,-6.17142,-3.85623,-0.61857,0.70315,-7.40634,-0.307648348
ISAOCJYIOMOJEB-UHFFFAOYNA-N,"1,2-dichloroethane",212.248,240.911,-26493.944000000003,-822.1713157894774,228.727,6.91531,9.716,10.338,-1.10464,-1.05344,-0.56274,0.49991,-1.10464,-0.609800665
FOCAUTSVDIKZOP-JLSKMEETNA-N,toluene,94.4975,111.619,-19344.518,-2711.6623333333337,228.727,6.91531,8.673,11.664,-1.00957,0.30339,-0.53785,0.63256,-1.08152,0.146206095
GVEPBJHOBDJJJI-UHFFFAOYNA-N,hexane,202.255,227.244,-22959.048000000003,-395.1282040816295,228.727,6.91531,9.741,13.07,0.0,-1.55394,-0.15737,0.15852,0.0,-0.951169913
RJKGJBPXVHTNJL-UHFFFAOYNA-N,nonane,173.171,192.122,-22413.348,-262.83287804878273,197.443,5.99351,9.181,13.409,-0.95387,-1.0382,-0.47816,0.8304,-0.1234699999999999,-0.844691494
WURBFLDFSFBTLW-UHFFFAOYNA-N,1-butanol,210.232,239.946,-26057.844,-1047.1982040816329,254.79,5.29843,8.856,13.067,-1.01358,-0.6694500000000001,-0.50712,0.44136,-1.01358,-0.850000001
SQNZJJAZBFDUTD-UHFFFAOYNA-N,1-hexanol,134.221,191.231,-23033.120000000003,-564.4694193548385,195.358,0.00595899,10.646,11.752,0.0,-2.34586,-0.4905,0.17082,0.0,-0.16413558
ONUFSRWQCKNVSL-UHFFFAOYNA-N,cyclohexane,334.116,260.826,-29322.776,96.55779999999504,195.358,0.00595899,9.052,15.024,0.0,0.75981,-0.09544,0.16355,-0.7598,-0.09550399
TYFQFVWCELRYAO-FLKJISBTNA-N,1-propanol,174.196,221.083,-26073.3,-47.72799999999552,195.358,0.00595899,10.533,14.145,-2.22481,-0.4513399999999999,-0.62578,0.67288,-2.22481,-0.521211234
NQTPEBUGIFUYEC-UHFFFAOYNA-N,toluene,227.262,266.744,-28013.094,-1002.1436666666632,195.358,0.00595899,8.599,9.38,-0.84137,-1.12043,-0.45544,0.34282,-1.17112,-1.327902142
CDVNZMKTJIBBBV-WXRBYKJCNA-N,2-isopropoxyethanol,226.145,221.597,-26310.414000000004,-1227.569333333333,230.749,5.73983,7.86,13.042000000000002,-2.97362,-0.17136,-0.57066,0.87509,-1.22816,-0.072886566
VPHHJAOJUJHJKD-KZFATGLANA-N,3-methoxy-1-butanol,191.013,187.66,-24067.75,-2420.076969696965,189.242,0.289928,8.395,12.396,-1.06438,0.2358299999999999,-0.58808,0.66358,-1.17447,-0.361736448
CWRYPZZKDGJXCA-UHFFFAOYNA-N,cyclohexane,154.211,187.008,-20953.226,408.7027999999991,192.374,1.34711,10.081,12.587,0.0,-1.57086,-0.29293,0.16217,0.0,-0.196816111
BSYNRYMUTXBXSQ-WXRBYKJCNA-N,1-butanol,180.16,198.444,-25267.598,-1093.3161500000097,192.374,1.34711,9.161,13.164,-2.07442,0.32546,-0.60765,0.71371,-2.07442,-0.150702998
BOCJQSFSGAZAPQ-UHFFFAOYNA-N,2-propanol,242.661,236.9,-25961.812,-790.3426530612232,192.374,1.34711,8.459,13.075,-1.08123,-0.12115,-0.54413,0.5706,-1.1489,-2.364698253
VZCYOOQTPOCHFL-KHGLRPAFNA-N,acetone,116.073,139.716,-21272.718,-1111.6260000000002,125.616,0.00155382,8.6,12.531,-2.08567,0.92327,-0.57615,0.65128,-2.08567,-1.097491624
WNLRTRBMVRJNCN-AUDIXQRPNA-N,2-methyl-2-propanol,146.143,179.366,-23641.424,-634.9465263157872,177.168,3.23997,10.628,14.651,-2.21052,0.0849099999999998,-0.61525,0.66753,-2.21052,-0.210115858
BOCJQSFSGAZAPQ-UHFFFAOYNA-N,"2,2,4-trimethylpentane",242.661,236.9,-25826.356,-654.8866530612213,177.168,3.23997,8.812,14.164,-0.97254,-0.1939399999999999,-0.49386,0.53854,-1.02039,-2.741419701
DWMREKMVXIFPFM-RWWBHRBBNA-N,1-pentanol,351.394,322.202,-33351.187999999995,-1318.1500833333266,358.286,5.252689999999999,8.76,11.567,-2.92418,-0.88536,-0.97937,2.49532,-1.7531599999999998,-2.997986508
NIHNNTQXNPWCJQ-UHFFFAOYNA-N,acetone,166.222,200.685,-21515.774,-113.6429999999964,207.069,0.705284,9.71,9.586,0.0,-1.66723,-0.32635,0.18475,0.0,-0.066709686
YGSDEFSMJLZEOE-BGGKNDAXNA-N,cyclohexane,138.123,157.307,-21225.538,-78.72540000000299,207.069,0.705284,9.649,13.8,-1.52624,0.14393,-0.59265,0.67591,-1.52624,-2.301029996
HEFNNWSXXWATRW-YHMJCDSINA-N,benzene,206.284,257.71,-28212.308,-216.65606451612985,280.52,2.67063,9.752,9.78,-1.05332,-1.95159,-0.56321,0.62085,-1.05332,0.003344403
LDHQCZJRKDOVOX-GSMIJIFMNA-N,methanol,86.0902,125.605,-19792.692000000003,-740.2810000000027,280.52,2.67063,10.074,13.654,-1.12391,-0.1656599999999999,-0.63264,0.6941,-1.12391,0.72479609
HEFNNWSXXWATRW-YHMJCDSINA-N,heptane,206.284,254.206,-28472.836000000003,-477.1840645161356,280.52,2.67063,11.122,13.427,-1.04338,-1.93058,-0.56409,0.61625,-1.04338,-0.420216403
BMLIZLVNXIYGCK-WXRBYKJCNA-N,1-hexanol,198.652,226.361,-26052.826,-2157.0685517241363,280.52,2.67063,9.952,11.863,-0.66713,-0.4295699999999999,-0.66713,0.68266,-1.59929,-0.920000002
FJKROLUGYXJWQN-BGGKNDAXNA-N,formamide,138.123,160.99,-21742.054000000004,-904.1607142857138,155.952,2.60079,9.788,10.762,-1.59742,0.13549,-0.62803,0.68724,-1.59742,-0.147442368
GVEPBJHOBDJJJI-UHFFFAOYNA-N,trifluoroethanol,202.255,227.244,-23071.0,-507.080204081627,155.952,2.60079,9.959,9.83,0.0,-1.65381,-0.15715,0.16824,0.0,-2.565859965
XPCTZQVDEJYUGT-UHFFFAOYNA-N,ethanol,126.112,149.344,-20518.992,-512.7097499999982,155.952,2.60079,9.735,12.538,-1.34243,-0.0444899999999999,-0.61349,0.61424,-1.34243,-0.561033424
PCZOHLXUXFIOCF-BXMDZJJMNA-N,acetone,404.545,412.499,-41041.17,-709.8533333333326,525.019,7.91439,10.285,9.688,-2.72985,-3.19074,-0.62501,0.73415,-2.72985,-0.667676883
NVKJOXRVEKMMHS-UHFFFAOYNA-N,1-heptanol,128.047,130.739,-20841.932,-1487.417428571429,117.082,1.17488,5.986,14.865,-1.02754,0.54358,-0.41324,0.85103,-0.5435700000000001,-1.605541962
BSYNRYMUTXBXSQ-WXRBYKJCNA-N,2-methyl-1-propanol,180.16,198.588,-25253.816000000003,-1079.5341500000104,117.082,1.17488,9.089,13.216,-2.0754,0.32581,-0.60776,0.71399,-2.0754,-0.469800302
CMWTZPSULFXXJA-GTNTULIANA-N,"1,4-dioxane",230.263,259.98,-28131.124,-445.1797714285676,117.082,1.17488,8.870000000000001,10.345,-1.42256,-1.06136,-0.55558,0.61797,-1.42256,0.124389125
VPHHJAOJUJHJKD-KZFATGLANA-N,2-methyl-1-butanol,191.013,187.61,-23526.538,-1878.864969696966,189.143,3.5206500000000003,8.878,12.909,-1.06702,0.23735,-0.59141,0.66478,-1.17779,-0.774760077
UFWIBTONFRDIAS-UHFFFAOYNA-N,dmf,128.173,165.632,-19451.902,144.88103030302955,189.143,3.5206500000000003,8.641,9.953,0.0,-1.28584,-0.17634,0.16287,0.0,0.475880653
WURBFLDFSFBTLW-UHFFFAOYNA-N,water,210.232,239.966,-25194.264000000003,-183.6182040816348,189.143,3.5206500000000003,10.271,14.15,-1.02562,-0.66671,-0.51284,0.44425,-1.02562,-3.426999958
WNLRTRBMVRJNCN-AUDIXQRPNA-N,methanol,146.143,178.012,-23412.918,-406.4405263157896,189.143,3.5206500000000003,10.699,14.301,-2.22841,0.08719,-0.62751,0.67353,-2.22841,0.033130839
CKAPSXZOOQJIBF-UHFFFAOYNA-N,2-methyl-1-propanol,284.784,220.81,-23579.65,1944.3478571428568,189.143,3.5206500000000003,8.823,12.888,0.0,0.06425,-0.01087,0.01094,-0.06425,-2.238926563
ISAOCJYIOMOJEB-UHFFFAOYNA-N,3-methoxy-1-butanol,212.248,245.486,-26626.33,-954.557315789476,259.29799999999994,2.18678,8.766,12.317,-1.08266,-1.07592,-0.54153,0.51969,-1.08266,-1.015574625
RGHHSNMVTDWUBI-UHFFFAOYNA-N,water,122.123,152.244,-20450.374000000003,-790.2860000000001,259.29799999999994,2.18678,10.934,13.683,-1.08409,-0.12881,-0.597,0.46995,-1.08409,-0.953460778
CDVNZMKTJIBBBV-WXRBYKJCNA-N,2-butanol,226.145,221.228,-26790.369999999995,-1707.525333333324,259.29799999999994,2.18678,8.346,14.21,-2.99198,-0.1621499999999999,-0.57674,0.87837,-1.23925,-0.784872727
ZUOUZKKEUPVFJK-UHFFFAOYNA-N,"1,2-dibromoethane",154.211,198.05,-21574.282,-755.6528148148136,201.225,0.0017916499999999,10.363,8.842,0.0,-1.57069,-0.17631,0.16024,0.0,0.535876123
ZIMGGGWCDYVHOY-UHFFFAOYNA-N,peg400,209.25,235.246,-25872.561999999994,-570.2357142857072,247.365,8.358,9.034,10.191,-0.35896,-0.25498,-0.706,0.48886,-2.64186,-1.835999988
NIHNNTQXNPWCJQ-UHFFFAOYNA-N,2-methyl-2-butanol,166.222,200.685,-21525.706,-123.57499999999708,247.365,8.358,9.829,12.035,0.0,-1.64042,-0.32479,0.18196,0.0,-0.770711005
UMGDCJDMYOKAJW-UBUOBULFNA-N,1-hexanol,76.116,104.406,-16926.604000000003,251.66639999999825,89.1186,7.47372,10.273,12.523,0.0,0.50707,-0.7975,0.50707,-1.69936,-1.130866553
XMTQQYYKAHVGBJ-XWKXFZRBNA-N,2-methyl-2-butanol,233.097,243.224,-26552.090000000004,-1567.3984800000037,89.1186,7.47372,9.723,12.225,-0.64358,-0.25619,-0.64358,0.68048,-1.61687,-1.299320827
VYWYYJYRVSBHJQ-KZFATGLANA-N,1-hexanol,212.118,207.701,-25322.246,-1416.485259259258,89.1186,7.47372,8.144,14.417000000000002,-3.00636,0.2781399999999999,-0.57389,0.87303,-1.26105,-0.620198756
PEQHIRFAKIASBK-UHFFFAOYNA-N,nitromethane,320.433,335.387,-35477.130000000005,-3927.789799999999,89.1186,7.47372,11.338,8.687999999999999,0.0,-3.1963,-0.18889,0.16304,0.0,-3.400000186
BMLIZLVNXIYGCK-WXRBYKJCNA-N,hexane,198.652,225.866,-25712.674,-1816.9165517241345,89.1186,7.47372,10.77,13.286,-0.59934,-0.39108,-0.59934,0.67448,-1.54589,-3.380000399
GUCYFKSBFREPBC-UHFFFAOYNA-N,ethanol,418.471,403.397,-41658.75,218.5740000000078,518.533,3.40313,9.501,12.516,-1.83032,-4.3581,-0.90063,1.27052,-0.5598,-1.208582825
GHICCUXQJBDNRN-BGGKNDAXNA-N,methanol,248.02,183.315,-23789.158,-1149.1720000000023,518.533,3.40313,9.286,12.704,-1.08316,0.02141,-0.60517,0.66395,-1.12293,-1.301029996
YSSSPARMOAYJTE-UHFFFAOYNA-N,acetophenone,360.406,361.536,-35440.475999999995,-426.07505882352416,430.338,8.98882,9.813,8.44,-2.59084,-1.15603,-0.47987,0.22833,-2.59084,-1.142667504
SKZKKFZAGNVIMN-FSHFIPFONA-N,acetone,137.138,161.072,-21213.302000000003,-714.0901176470579,430.338,8.98882,9.561,10.294,-1.19428,0.0628499999999999,-0.69728,0.649,-1.73615,0.212720154
YLQWCDOCJODRMT-UHFFFAOYNA-N,acetonitrile,180.206,204.757,-22315.732,-498.4482790697657,430.338,8.98882,11.239,10.74,-0.56091,-0.8044,-0.56091,0.59998,-0.56091,0.195899652
WPYMKLBDIGXBTP-FZOZFQFYNA-N,formamide,122.123,151.267,-21062.408000000003,-1331.4086500000049,144.24200000000002,3.5404400000000003,9.735,11.089,-1.10303,-0.1085699999999999,-0.61984,0.66869,-1.10303,0.446226402
XVULBTBTFGYVRC-HHUCQEJWNA-N,1-propanol,308.503,335.235,-36068.628,-2344.354000000006,144.24200000000002,3.5404400000000003,11.076,12.811,-1.26224,-4.54168,-0.64019,0.42148,-1.26224,-0.371257955
JYGXADMDTFJGBT-VWUMJDOONA-N,peg400,362.465,341.201,-35630.666,273.6425999999992,441.613,6.4742,9.278,11.308,-2.89115,-2.55547,-0.63583,0.63872,-2.89115,-1.854999988
VPHHJAOJUJHJKD-KZFATGLANA-N,4-methyl-2-pentanol,191.013,187.61,-23496.182,-1848.5089696969665,441.613,6.4742,9.086,12.969,-1.06615,0.23668,-0.59043,0.6643,-1.17649,-0.692044234
HVYWMOMLDIMFJA-DPAQBDIFNA-N,1-pentanol,386.66,422.378,-40177.740000000005,-1416.279272727283,441.613,6.4742,11.682,12.042,-0.61675,-6.02471,-0.61675,0.33368,-0.61675,-0.500753652
UMGDCJDMYOKAJW-UBUOBULFNA-N,ethanol,76.116,104.406,-16917.252000000004,261.0183999999972,441.613,6.4742,10.462000000000002,12.592,0.0,0.50901,-0.81273,0.50901,-1.7081,-0.367621418
BBEAQIROQSPTKN-UHFFFAOYNA-N,toluene,202.255,222.477,-22099.108,9.000985074628261,242.505,0.000562553,7.907999999999999,8.603,0.0,-1.58449,-0.1758,0.15988,0.0,-0.213532523
BONIIQYTWOPUQI-BGGKNDAXNA-N,"1,4-dioxane",192.131,189.709,-23258.424,-494.4139999999934,242.505,0.000562553,7.433,13.022,-1.82925,0.62095,-0.4939,0.82704,-1.4961099999999998,-0.907187476
ILUJQPXNXACGAN-BGGKNDAXNA-N,2-ethyl-1-hexanol,152.149,179.386,-24311.036000000004,-1427.3637837837923,242.505,0.000562553,9.587,12.383,-1.46077,-0.07701,-0.60994,0.6995,-1.46077,-0.602059991
YRHRIQCWCFGUEQ-UHFFFAOYNA-N,2-methyl-1-pentanol,212.266,221.762,-24647.15,-1454.0591785714278,242.505,0.000562553,8.926,11.902,-0.58781,-0.7961199999999999,-0.58781,0.58969,-0.5986600000000001,-1.860391015
SWJPEBQEEAHIGZ-UHFFFAOYNA-N,2-pentanol,235.906,168.859,-20969.362,-1949.929176470592,242.505,0.000562553,9.8,12.63,0.0,-0.55049,-0.13937,0.18498,-0.18906,-0.387421006
MUMGGOZAMZWBJJ-DYKIIFRCNA-N,1-pentanol,288.429,299.709,-32206.336,-1408.6550000000025,375.376,7.18578,10.028,12.927,-1.24424,-3.25527,-0.64333,0.64351,-1.24424,-0.272014092
YGSDEFSMJLZEOE-BGGKNDAXNA-N,formamide,138.123,157.307,-22216.282,-1069.4694000000018,375.376,7.18578,9.623,10.668,-1.5957,0.1527099999999999,-0.63333,0.69704,-1.5957,-0.055024092
QUEKGYQTRJVEQC-KZFATGLANA-N,1-octanol,201.566,196.614,-24677.35,-1169.46860869565,198.066,5.67211,8.440999999999999,13.451,-2.03541,0.2435299999999999,-0.57037,0.86438,-1.20895,-0.318758763
SEEPANYCNGTZFQ-YHMJCDSINA-N,benzene,250.275,249.175,-26695.086,925.8556470588264,198.066,5.67211,8.986,9.506,-1.90494,-0.54351,-0.95446,2.51972,-1.4892,-4.430415638
FJKROLUGYXJWQN-BGGKNDAXNA-N,1-hexanol,138.123,160.87,-21813.428,-975.53471428571,155.071,2.51037,9.524,12.71,-1.58334,0.1342399999999999,-0.61734,0.68241,-1.58334,-0.023191663
CMWTZPSULFXXJA-GTNTULIANA-N,3-methyl-1-butanol,230.263,260.968,-28237.36,-551.415771428572,277.284,4.87726,9.193,11.723,-1.48416,-1.10084,-0.61675,0.64103,-1.48416,-0.962573502
XMTQQYYKAHVGBJ-XWKXFZRBNA-N,chloroform,233.097,243.324,-26800.904,-1816.212480000002,251.028,6.79347,10.77,8.413,-0.63682,-0.2523000000000001,-0.63682,0.6796,-1.61191,-1.179999999
GPSDUZXPYCFOSQ-BGGKNDAXNA-N,1-butanol,136.15,170.057,-22152.35,-958.7650857142836,251.028,6.79347,9.439,12.704,-1.09191,-0.4887999999999999,-0.60948,0.6589,-1.09191,0.21961695
DWMREKMVXIFPFM-RWWBHRBBNA-N,hexane,351.394,322.127,-33429.754,-1396.7160833333328,358.30400000000003,4.67755,9.501,13.044,-2.82062,-0.8776499999999999,-0.9377,2.46079,-1.6756700000000002,-5.218614471
KZTYYGOKRVBIMI-UHFFFAOYNA-N,ethanol,218.27,232.089,-26739.766,-531.9820833333324,249.789,7.60583,10.047,12.906,-1.99897,-2.10153,-0.99956,2.45858,0.4596099999999999,-1.047352099
ODVLMCWNGKLROU-KZFATGLANA-N,ethanol,180.16,196.641,-23492.212,-24.9948000000004,198.691,2.5968599999999995,10.116,11.922,-1.84836,0.1609199999999999,-0.60517,0.68245,-1.84836,-0.259637311
CKAPSXZOOQJIBF-UHFFFAOYNA-N,2-ethyl-1-hexanol,284.784,220.81,-23579.056,1944.9418571428607,198.691,2.5968599999999995,8.828,12.822,0.0,0.05589,-0.00945,0.00964,-0.0558899999999999,-1.959508937
JGMBHJNMQVKDMW-UHFFFAOYNA-N,ethanol,291.176,286.757,-29778.154,-1928.1574285714305,198.691,2.5968599999999995,9.713,12.553,-0.61226,-1.34999,-0.61226,0.61707,-0.76969,-1.29347626
HEFNNWSXXWATRW-YHMJCDSINA-N,"1,2-propanediol",206.284,257.549,-29310.098,-1314.4460645161307,198.691,2.5968599999999995,10.391,11.693,-1.10276,-1.97861,-0.60939,0.64456,-1.10276,0.091576999
JGMBHJNMQVKDMW-UHFFFAOYNA-N,dmf,291.176,286.675,-29540.268000000004,-1690.271428571432,198.691,2.5968599999999995,8.635,10.809,-0.60431,-1.35207,-0.60431,0.6141,-0.75803,-0.110390954
ZEYHEAKUIGZSGI-BGGKNDAXNA-N,3-methyl-1-butanol,152.149,180.352,-23609.828,-2123.3060689655176,198.691,2.5968599999999995,9.434,12.63,-1.48351,-0.0968999999999999,-0.61946,0.68309,-1.48351,-1.096910013
WLJVXDMOQOGPHL-BGGKNDAXNA-N,benzene,136.15,170.855,-21481.162000000004,-442.10822222222487,198.691,2.5968599999999995,9.604,10.162,-1.04926,-0.4865899999999999,-0.56415,0.65768,-1.04926,0.525044807
YRHRIQCWCFGUEQ-UHFFFAOYNA-N,cyclohexanone,212.266,221.762,-24813.436,-1620.3451785714278,236.332,3.17897,8.613,9.716,-0.59248,-0.79544,-0.59248,0.59187,-0.60473,-1.095282773
ISAOCJYIOMOJEB-UHFFFAOYNA-N,1-pentanol,212.248,240.261,-27098.576,-1426.8033157894752,236.332,3.17897,9.315,12.558,-1.09257,-1.06333,-0.55369,0.51356,-1.09257,-1.610264335
WLJVXDMOQOGPHL-BGGKNDAXNA-N,heptane,136.15,171.567,-22171.352000000003,-1132.2982222222236,236.332,3.17897,11.091,13.777,-1.04191,-0.4771999999999999,-0.5428,0.6488,-1.04191,-1.030350326
NQTPEBUGIFUYEC-UHFFFAOYNA-N,thf,227.262,268.0,-27706.248,-695.2976666666655,236.332,3.17897,8.732999999999999,11.318,-0.86121,-1.15054,-0.48331,0.35562,-1.2236,0.115277591
WPYMKLBDIGXBTP-FZOZFQFYNA-N,acetone,122.123,151.225,-20871.394,-1140.394650000002,236.332,3.17897,9.368,10.783,-1.09684,-0.10923,-0.61323,0.66576,-1.09684,0.29139676
QYSPLQLAKJAUJT-HCKMINDGNA-N,"1,4-dioxane",331.345,311.688,-31449.394000000004,-715.2480000000032,236.332,3.17897,8.246,11.009,-2.86854,-0.71505,-0.93198,2.47498,-1.84807,-1.248964279
WHUUTDBJXJRKMK-IQTGVIGANA-N,1-propanol,147.13,174.898,-23482.768,-387.6831999999995,236.332,3.17897,10.319,13.224,-2.18469,0.5619500000000001,-0.61236,0.66533,-2.70786,-2.949408756