InChIkey,Solvent,MW,SASA,G_sol,DeltaG_sol,Volume,sol_dip,LsoluHsolv,LsolvHsolu,O_charges,C_charges,Most_neg,Most_pos,Het_charges,LogS
FAKRSMQSSFJEIM-ABFVFRESNA-N,2-propanol,217.282,234.342,-28104.972000000005,-232.45833333334667,174.681,4.85752,10.601,12.432,-1.73922,-0.37111,-0.66238,0.61098,-2.44007,0.002760722
XMTQQYYKAHVGBJ-XWKXFZRBNA-N,water,233.097,243.198,-26660.634,-1675.942479999998,251.009,7.418620000000001,11.118,13.092,-0.67515,-0.26772,-0.67515,0.68297,-1.64471,-3.058818459
YLQWCDOCJODRMT-UHFFFAOYNA-N,hexadecane,180.206,204.757,-22235.998000000003,-418.71427906976896,251.009,7.418620000000001,9.321000000000002,13.313,-0.49295,-0.79831,-0.49295,0.56789,-0.49295,-0.920818754
UFWIBTONFRDIAS-UHFFFAOYNA-N,aniline,128.173,165.632,-19458.456,138.3270303030331,251.009,7.418620000000001,7.77,9.219,0.0,-1.27498,-0.17499,0.16149,0.0,0.250420002
MWPLVEDNUUSJAV-UHFFFAOYNA-N,1-tert-butoxy-2-propanol,178.233,211.323,-21530.694,708.8244571428622,251.009,7.418620000000001,8.453999999999999,10.095,0.0,-1.6266,-0.19709,0.16923,0.0,-1.727730812
YNPNZTXNASCQKK-UHFFFAOYNA-N,water,178.233,209.637,-22867.788,-486.2081666666672,251.009,7.418620000000001,10.814,12.718,0.0,-1.64471,-0.1761,0.16874,0.0,-5.2599999
ZZUFCTLCJUWOSV-CDZRGBSPNA-N,ethanol,330.742,306.367,-31742.892000000007,-1083.9735000000037,251.009,7.418620000000001,9.334,12.48,-3.31054,-0.4881499999999999,-1.00035,2.57318,-2.08409,-1.647932687
ZWLPBLYKEWSWPD-BGGKNDAXNA-N,2-butoxyethanol,136.15,166.378,-22111.984,-1103.901249999999,251.009,7.418620000000001,9.312,11.66,-1.09856,-0.4877200000000001,-0.60174,0.67494,-1.09856,0.181024591
GPSDUZXPYCFOSQ-BGGKNDAXNA-N,3-methoxy-1-butanol,136.15,169.889,-21926.054,-732.4690857142814,164.562,4.00727,8.854,12.179,-1.08568,-0.48941,-0.60307,0.65586,-1.08568,0.24884681
JNMRHUJNCSQMMB-XWKXFZRBNA-N,1-octanol,255.309,248.145,-27229.426000000003,-835.385500000004,267.50600000000003,3.3183,9.434,11.939,-1.94501,-1.11601,-0.98175,2.51355,-0.8192600000000001,-3.219999702
ZUOUZKKEUPVFJK-UHFFFAOYNA-N,benzene,154.211,198.05,-21533.932,-715.3028148148151,267.50600000000003,3.3183,9.49,9.615,0.0,-1.53694,-0.17272,0.15725,0.0,0.52318427
RYYVLZVUVIJVGH-UHFFFAOYNA-N,chloroform,194.193,206.811,-25957.648000000005,-2015.485666666671,267.50600000000003,3.3183,10.678,8.687,-1.17162,0.3146000000000001,-0.58678,0.68222,-2.18151,-0.089836758
LPEPZBJOKDYZAD-LILDFLRNNA-N,peg400,281.234,270.714,-29201.898,-883.80533333333,267.50600000000003,3.3183,8.954,9.958,-1.07693,0.0172199999999999,-0.60175,0.68702,-2.0761,-1.073999999
FJKROLUGYXJWQN-BGGKNDAXNA-N,"1,4-dioxane",138.123,161.02,-21489.138,-651.244714285709,267.50600000000003,3.3183,8.931000000000001,11.538,-1.52002,0.12492,-0.57047,0.66019,-1.52002,-0.148130399
HOKCUULFCASAQT-OLAIDOCJNA-N,toluene,472.669,494.375,-46861.046,-1971.4063333333324,643.165,7.05036,8.147,9.316999999999998,-1.18889,-4.32369,-0.60249,0.63981,-2.09662,-0.853871964
ZUOUZKKEUPVFJK-UHFFFAOYNA-N,heptane,154.211,198.095,-21631.34,-812.7108148148145,643.165,7.05036,10.864,13.274,0.0,-1.52621,-0.17173,0.15645,0.0,-0.023016252
LULAYUGMBFYYEX-BGGKNDAXNA-N,2-methyl-1-propanol,156.568,170.452,-22202.134,-1015.632857142853,643.165,7.05036,9.155,12.915,-1.07848,0.0715399999999999,-0.60003,0.66303,-1.16605,-0.132215585
HCUARRIEZVDMPT-WXRBYKJCNA-N,1-butanol,161.16,184.324,-22893.596,-653.7599999999948,643.165,7.05036,9.235,11.819,-1.08072,-0.26973,-0.59186,0.67794,-1.24097,-0.137097401
CWRYPZZKDGJXCA-UHFFFAOYNA-N,hexane,154.211,187.008,-20951.746,410.1828000000023,643.165,7.05036,10.509,12.829,0.0,-1.56734,-0.29264,0.16179,0.0,-0.404724288
YNPNZTXNASCQKK-UHFFFAOYNA-N,1-octanol,178.233,209.536,-22791.446000000004,-409.8661666666703,220.11,0.0596755,9.469,11.538,0.0,-1.62249,-0.17436,0.16639,0.0,-0.476931102
QQVIHTHCMHWDBS-FLKJISBTNA-N,acetone,166.133,182.445,-24199.618,-1519.8498461538477,220.11,0.0596755,9.013,11.209,-2.16755,0.7194999999999999,-0.60277,0.67429,-2.16755,-0.445211406
AVPYQKSLYISFPO-UHFFFAOYNA-N,acetonitrile,140.569,162.168,-20983.954,-1382.4604000000036,220.11,0.0596755,11.678,11.35,-0.574,-0.1922,-0.574,0.45424,-0.6700699999999999,0.747012039
DWCLXOREGBLXTD-UHFFFAOYNA-N,acetone,176.172,185.599,-24622.692,-280.0507142857132,209.894,9.29096,8.807,12.195,-1.92206,-1.85926,-0.52062,0.73294,-0.45624,-1.100202148
DWMREKMVXIFPFM-RWWBHRBBNA-N,methanol,351.394,321.926,-32845.784,-812.7460833333316,209.894,9.29096,8.962,11.489,-2.98285,-0.9127,-0.98435,2.49528,-1.75816,-2.877684491
CWRYPZZKDGJXCA-UHFFFAOYNA-N,hexadecane,154.211,186.967,-20946.286,415.64280000000144,209.894,9.29096,10.188,12.39,0.0,-1.57089,-0.29294,0.16217,0.0,-0.41589503
DNKGZSOYWMQDTK-KZFATGLANA-N,ethanol,281.093,252.186,-27865.848,-2276.763999999999,209.894,9.29096,9.143,13.075,-0.92825,-0.6710499999999999,-0.63202,0.6913,-1.42422,0.774161972
RZVAJINKPMORJF-BGGKNDAXNA-N,1-heptanol,151.165,184.922,-23295.12,-375.9306842105252,209.894,9.29096,10.063,11.602,-1.14256,-0.4282799999999999,-0.64404,0.66183,-1.58337,-0.709480526
GECHUMIMRBOMGK-YHMJCDSINA-N,cyclohexane,249.287,252.675,-28033.806,-1272.4563999999991,209.894,9.29096,10.314,13.201,-1.90832,-1.06657,-0.96246,2.52726,-1.07695,-6.171675297
CDPKJZJVTHSESZ-KZFATGLANA-N,methanol,170.595,190.914,-23108.662,-1249.350333333332,209.894,9.29096,10.14,12.467,-1.10288,-0.30275,-0.6068,0.68309,-1.21127,0.710851637
DFXQXFGFOLXAPO-KZFATGLANA-N,2-methyl-1-propanol,201.566,197.358,-24555.686,-1288.804647058823,201.391,3.7923,8.588999999999999,13.553,-2.01401,0.21465,-0.58475,0.86365,-1.17816,-0.721246399
YSSSPARMOAYJTE-UHFFFAOYNA-N,benzene,360.406,367.239,-35178.952,-164.55105882352655,201.391,3.7923,9.621,9.172,-2.40593,-1.10492,-0.45101,0.24331,-2.40593,-1.744727495
WJFKNYWRSNBZNX-UHFFFAOYNA-N,1-butanol,199.27,217.26,-25359.27,-2112.649999999998,201.391,3.7923,9.848,10.972,0.0,-1.2232500000000002,-0.39877,0.2999,-0.43526,-0.926452146
SWJPEBQEEAHIGZ-UHFFFAOYNA-N,benzene,235.906,168.859,-20953.9,-1934.467176470593,166.776,0.00124767,9.061,10.102,0.0,-0.53908,-0.14038,0.17849,-0.17472,0.373025991
MWPLVEDNUUSJAV-UHFFFAOYNA-N,2-ethyl-1-hexanol,178.233,211.323,-21530.3,709.2184571428625,166.776,0.00124767,8.844999999999999,11.082999999999998,0.0,-1.62584,-0.19706,0.16914,0.0,-2.054325642
MWOOGOJBHIARFG-UHFFFAOYNA-N,butanone,152.149,180.757,-23195.27,-1098.958599999998,166.776,0.00124767,9.041,9.745,-1.42868,-0.1035499999999999,-0.57255,0.44866,-1.42868,0.330007701
BBEAQIROQSPTKN-UHFFFAOYNA-N,heptane,202.255,222.477,-22094.048000000003,14.060985074625933,166.776,0.00124767,9.665,12.199,0.0,-1.56625,-0.17506,0.15802,0.0,-1.127552352
KRKNYBCHXYNGOX-CUNNJMNPNA-N,1-butanol,192.125,191.719,-26174.394,-1019.2218181818172,201.566,3.06452,9.751,14.566,-3.70122,1.28553,-0.59909,0.6918,-3.70122,0.08704291
AFPHTEQTJZKQAQ-BGGKNDAXNA-N,thf,167.121,179.627,-23104.802000000003,-1287.9342222222258,175.848,7.62561,7.757,13.188,-2.08134,0.09975,-0.59014,0.862,-1.21934,0.592639542
LINPIYWFGCPVIE-UHFFFAOYNA-N,acetonitrile,197.448,183.779,-22430.67,200.1724999999969,175.848,7.62561,11.849,10.832,-0.4518,-0.15592,-0.4518,0.35614,-0.60304,0.738066715
DNXHEGUUPJUMQT-CBZIJGRNNA-N,peg400,270.371,286.417,-28677.758000000005,146.65699999998833,175.848,7.62561,9.795,10.084,-1.10384,-2.56613,-0.59681,0.55541,-1.10384,-1.870999985
IUWVALYLNVXWKX-UHFFFAOYNA-N,peg400,193.245,239.637,-27171.49,-960.1409999999996,247.265,4.8986,9.223,10.252,-1.03877,-0.99611,-0.62741,0.68091,-1.53885,0.475
UFWIBTONFRDIAS-UHFFFAOYNA-N,water,128.173,165.632,-19456.538,140.24503030303094,247.265,4.8986,10.951,12.797999999999998,0.0,-1.29963,-0.17823,0.16469,0.0,-3.623999524
SKCNYHLTRZIINA-UHFFFAOYNA-N,acetone,162.018,173.36,-22020.614,-532.3654285714256,171.673,4.3084,9.375,10.744,0.0,-0.3409999999999999,-0.37328,0.20469,-0.61104,-0.242321189
DKYWVDODHFEZIM-GPQMBLKYNA-N,2-methyl-1-propanol,254.285,278.919,-30214.33,-1384.4182222222153,171.673,4.3084,9.198,12.938,-1.67067,-0.90339,-0.58965,0.63564,-1.67067,-0.014984594
ILUJQPXNXACGAN-BGGKNDAXNA-N,1-heptanol,152.149,179.108,-23505.54,-621.8677837837895,171.673,4.3084,9.655,12.308,-1.46945,-0.07633,-0.6155,0.70246,-1.46945,-0.468521083
BBEAQIROQSPTKN-UHFFFAOYNA-N,benzene,202.255,222.477,-22098.216,9.892985074628086,171.673,4.3084,8.291,8.540999999999999,0.0,-1.58135,-0.17568,0.15956,0.0,-0.173925197
NUVBSKCKDOMJSU-UHFFFAOYNA-N,methanol,166.176,200.49,-25131.554000000004,-756.2229090909132,171.673,4.3084,9.757,12.561,-1.53092,-0.3851199999999999,-0.61681,0.6921,-1.53092,0.389149618
DKYWVDODHFEZIM-GPQMBLKYNA-N,1-propanol,254.285,282.251,-30334.91,-1504.9982222222095,171.673,4.3084,9.293,12.835,-1.67799,-0.8981899999999999,-0.60467,0.64354,-1.67799,0.041565714
QECIGCMPORCORE-UHFFFAOYNA-N,ethanol,206.243,230.263,-24840.610000000004,-943.7748000000064,244.493,4.92349,9.046,11.887,-0.5843,-1.04918,-0.5843,0.45472,-0.5843,-1.0
ZUOUZKKEUPVFJK-UHFFFAOYNA-N,water,154.211,197.985,-21686.882,-868.2528148148122,244.493,4.92349,11.482,13.297,0.0,-1.61043,-0.18097,0.16416,0.0,-4.533979815
BMLIZLVNXIYGCK-WXRBYKJCNA-N,nonane,198.652,226.022,-25789.964,-1894.206551724132,244.493,4.92349,10.549,12.902,-0.60219,-0.3927,-0.60219,0.67493,-1.54847,-3.359999833
IPCSVZSSVZVIGE-HCKMINDGNA-N,ethanol,256.428,352.276,-35014.074,-1411.8669999999984,244.493,4.92349,10.851,13.618,-1.12002,-3.56209,-0.61734,0.67234,-1.12002,-0.442829862
JWAZRIHNYRIHIV-UHFFFAOYNA-N,o-xylene,144.173,175.366,-21164.856,-242.00046153846407,176.437,1.20528,8.214,9.275,-0.47968,-1.00686,-0.47968,0.35511,-0.47968,-0.689728655
RZVAJINKPMORJF-BGGKNDAXNA-N,ethanol,151.165,185.227,-23438.058,-518.8686842105235,176.437,1.20528,10.198,11.731,-1.15664,-0.43125,-0.65494,0.66343,-1.59309,0.122357426
CWRYPZZKDGJXCA-UHFFFAOYNA-N,2-methyl-1-pentanol,154.211,187.008,-20961.474,400.4548000000032,176.437,1.20528,9.563,11.428,0.0,-1.64331,-0.29897,0.17015,0.0,-0.636364405
WLJVXDMOQOGPHL-BGGKNDAXNA-N,toluene,136.15,171.628,-22271.344,-1232.2902222222183,168.98,2.14977,9.343,10.171,-1.05362,-0.48118,-0.55383,0.65506,-1.05362,0.281556542
CWRYPZZKDGJXCA-UHFFFAOYNA-N,"1,2-dichloroethane",154.211,186.967,-21027.1,334.82880000000296,168.98,2.14977,10.149,8.99,0.0,-1.64049,-0.29874,0.16983,0.0,0.260014242
DAUAQNGYDSHRET-KZFATGLANA-N,1-butanol,182.176,208.205,-26051.338000000003,-1701.9218461538476,168.98,2.14977,9.342,11.976,-1.84069,-0.06212,-0.61151,0.66887,-1.84069,-1.140299695
HYYBABOKPJLUIN-HCKMINDGNA-N,"1,2-propanediol",241.289,271.507,-29319.064,-820.9347999999954,168.98,2.14977,9.503,10.954,-1.12009,-1.33875,-0.61885,0.68794,-1.54874,-2.307993963
FAOHQGXEASKQDL-AHPDCHJINA-N,methanol,215.685,247.493,-28298.256,-2269.2345454545502,168.98,2.14977,9.58,12.619,0.0,-0.10942,-0.5639,0.49259,-2.4322,-1.776979063
NSTQUZVZBUTVPY-UHFFFAOYNA-N,toluene,302.283,313.894,-34873.986000000004,-1473.8300000000015,168.98,2.14977,8.237,9.585,-2.67389,0.12009,-0.51103,0.421,-2.67389,-0.7739211268404256
AQIXAKUUQRKLND-UHFFFAOYSA-N,octane,252.337,271.122,-30004.480000000003,-1599.9450000000031,168.98,2.14977,11.043,12.905,0.0,-0.7562599999999999,-0.49178,0.4423,-2.36616,-1.380466706
DKYWVDODHFEZIM-GPQMBLKYNA-N,1-decanol,254.285,284.88,-29768.678,-938.7662222222134,309.768,2.61507,9.37,12.949,-1.65527,-0.90529,-0.59209,0.63735,-1.65527,-0.365448384
KRKNYBCHXYNGOX-CUNNJMNPNA-N,1-propanol,192.125,191.793,-26478.173999999995,-1323.0018181818125,309.768,2.61507,9.79,14.415,-3.70686,1.28508,-0.60016,0.6942,-3.70686,0.522445472
NIHNNTQXNPWCJQ-UHFFFAOYNA-N,1-pentanol,166.222,200.685,-21519.042,-116.91100000000006,309.768,2.61507,9.819,11.761,0.0,-1.66308,-0.32612,0.18432,0.0,-0.67966929
YRHRIQCWCFGUEQ-UHFFFAOYNA-N,1-heptanol,212.266,221.762,-24624.806,-1431.7151785714268,236.332,3.11882,9.081,11.807,-0.58698,-0.7962600000000001,-0.58698,0.58929,-0.5975699999999999,-1.790947487
BOCJQSFSGAZAPQ-UHFFFAOYNA-N,4-methyl-2-pentanol,242.661,236.9,-25941.705999999995,-770.2366530612198,236.332,3.11882,8.34,13.004,-1.07099,-0.12831,-0.5395,0.56768,-1.13667,-2.260652534
OTLNPYWUJOZPPA-BGGKNDAXNA-N,2-butoxyethanol,167.121,179.686,-23175.764,-1300.2057297297251,176.563,4.44587,7.963999999999999,12.519,-2.03892,0.0639499999999999,-0.57437,0.83992,-1.199,-0.719091489
VHHHONWQHHHLTI-UHFFFAOYNA-N,cyclohexane,236.74,176.295,-21901.022,-40.7793043478232,193.428,0.0002843029999999,8.83,15.71,0.0,0.29542,-0.04926,0.14771,-0.29542,0.008865784
ALYNCZNDIQEVRV-BGGKNDAXNA-N,chloroform,137.138,165.819,-22022.072,-1121.1362758620671,193.428,0.0002843029999999,10.733,8.497,-1.09742,0.0265999999999999,-0.606,0.67409,-1.59151,-0.841637508
CKAPSXZOOQJIBF-UHFFFAOYNA-N,1-chlorobutane,284.784,220.81,-23572.016,1951.9818571428625,193.428,0.0002843029999999,9.091,10.986,0.0,0.05506,-0.00933,0.00925,-0.05506,-1.440612218
ISWSIDIOOBJBQZ-UHFFFAOYNA-N,water,94.1128,129.077,-18398.5,-455.2003999999979,118.61,1.88787,11.729,13.321000000000002,-0.50874,-0.6978399999999999,-0.50874,0.35804,-0.50874,0.0
QGJZLNKBHJESQX-WRDJYESVNA-N,2-butanol,456.707,429.853,-41272.458000000006,-310.6511666666702,118.61,1.88787,10.755,12.697,-1.72045,-5.74213,-0.64088,0.62952,-1.72045,-1.794069612
MWPLVEDNUUSJAV-UHFFFAOYNA-N,water,178.233,211.323,-21532.922,706.5964571428594,221.706,0.00353814,10.296,12.227,0.0,-1.65483,-0.19904,0.1722,0.0,-6.36999995
MJIHNNLFOKEZEW-PKSOQXRJNA-N,1-propanol,369.361,346.309,-33807.536,-1164.2519999999931,221.706,0.00353814,9.57,11.771,-1.19493,-1.22452,-0.83242,1.19085,-1.49407,-1.383697713
GHICCUXQJBDNRN-BGGKNDAXNA-N,dmso,248.02,183.315,-24014.574,-1374.5880000000034,221.706,0.00353814,7.199999999999999,10.871,-1.07563,0.0192899999999999,-0.59695,0.66006,-1.11502,0.290034611
YRHRIQCWCFGUEQ-UHFFFAOYNA-N,propionitrile,212.266,221.762,-24880.062,-1686.9711785714244,236.332,3.21418,11.065,10.359,-0.59563,-0.7949499999999999,-0.59563,0.59333,-0.6088,-1.57547633
WURBFLDFSFBTLW-UHFFFAOYNA-N,1-propanol,210.232,240.092,-25638.136,-627.4902040816341,236.332,3.21418,8.63,12.883,-1.0136500000000002,-0.67301,-0.50687,0.44998,-1.0136500000000002,-0.81
QUEKGYQTRJVEQC-KZFATGLANA-N,ethanol,201.566,196.512,-24529.612,-1021.7306086956524,198.417,5.79642,8.582,13.491,-2.05374,0.2529499999999999,-0.57845,0.86869,-1.2241000000000002,0.146128036
QFOHBWFCKVYLES-UHFFFAOYNA-N,methanol,194.23,239.896,-26707.888000000006,-638.3930769230865,198.417,5.79642,9.749,12.558,-1.52704,-0.90176,-0.62116,0.68557,-1.52704,0.741282369
DWCLXOREGBLXTD-UHFFFAOYNA-N,butanone,176.172,186.038,-23575.472,767.1692857142843,210.628,9.27637,8.657,12.171,-1.92059,-1.85998,-0.5209,0.73273,-0.45522,-1.167615166
VPHHJAOJUJHJKD-KZFATGLANA-N,"1,4-dioxane",191.013,187.61,-23238.546,-1590.8729696969676,189.143,2.9292800000000003,8.33,11.749,-1.0253100000000002,0.20652,-0.54749,0.64158,-1.11718,-0.262761181
GVEPBJHOBDJJJI-UHFFFAOYNA-N,1-chlorobutane,202.255,227.244,-23030.564,-466.6442040816255,189.143,2.9292800000000003,9.154,9.797,0.0,-1.62854,-0.15552,0.16582,0.0,0.006146699
KZTYYGOKRVBIMI-UHFFFAOYNA-N,hexane,218.27,232.087,-26461.822,-254.03808333332927,189.143,2.9292800000000003,10.52,14.489999999999998,-1.91186,-2.08231,-0.95595,2.42104,0.5091800000000001,-2.400116928
SATCULPHIDQDRE-UHFFFAOYNA-N,thf,150.134,168.377,-22775.848,-2282.9645454545425,189.143,2.9292800000000003,8.418999999999999,11.586,-1.28395,0.26166,-0.56132,0.44836,-1.28395,0.871572936
IKGXIBQEEMLURG-NVPNHPEKNA-N,methanol,610.524,537.748,-49847.276,-234.318285714282,189.143,2.9292800000000003,9.076,12.201,-7.90316,0.8799399999999999,-0.62007,0.6438,-7.90316,-1.089287323
MWPLVEDNUUSJAV-UHFFFAOYNA-N,n-methylformamide,178.233,211.323,-21531.86,707.6584571428612,189.143,2.9292800000000003,8.516,9.268,0.0,-1.63658,-0.19776,0.17029,0.0,-1.896815778
YZMCKZRAOLZXAZ-WYUMXYHSNA-N,1-octanol,278.328,282.843,-29271.174000000003,-518.6239999999998,189.143,2.9292800000000003,9.891,11.908,-1.97094,-1.1492,-0.98946,2.56367,-1.7793199999999998,-3.059999796
GVEPBJHOBDJJJI-UHFFFAOYNA-N,nonane,202.255,227.244,-22961.324,-397.40420408162754,189.143,2.9292800000000003,9.52,12.686,0.0,-1.558,-0.15731,0.15892,0.0,-0.831797253
RJKGJBPXVHTNJL-UHFFFAOYNA-N,hexane,173.171,192.122,-22412.758,-262.24287804877895,189.143,2.9292800000000003,9.396,13.800999999999998,-0.95125,-1.03683,-0.47683,0.82911,-0.1221399999999999,-0.864501594
UVEWQKMPXAHFST-UHFFFAOYNA-N,acetonitrile,181.237,229.998,-24970.192000000003,-1607.2612500000032,189.143,2.9292800000000003,12.125,10.734,0.0,-1.4375,-0.37364,0.17284,-0.37364,0.567731963
GJCOSYZMQJWQCA-UHFFFAOYNA-N,1-heptanol,182.221,210.426,-22690.952,-682.5715121951216,189.143,2.9292800000000003,10.126,11.628,-0.36557,-1.33121,-0.36557,0.25088,-0.36557,-0.638272164
RJKGJBPXVHTNJL-UHFFFAOYNA-N,1-propanol,173.171,192.125,-22480.848,-330.3328780487791,189.143,2.9292800000000003,8.695,12.158,-1.01529,-1.06702,-0.50902,0.85874,-0.15655,-0.417820746
IYYZUPMFVPLQIF-UHFFFAOYNA-N,water,184.255,204.586,-22093.414,-307.2536666666638,214.093,1.978,10.979,12.746,0.0,-1.37636,-0.15016,0.17149,0.02886,-4.7950002
IEDVJHCEMCRBQM-CLRGVMNRNA-N,ethanol,290.321,310.955,-32361.276000000005,-892.0077777777842,214.093,1.978,9.979,12.201,-1.18054,-0.19158,-0.59378,0.44992,-3.25287,-1.830096124
SXYIRMFQILZOAM-HVNFFKDJNA-N,2-propanol,298.378,292.644,-31952.366,1379.974499999993,358.80400000000003,4.1579500000000005,9.537,12.94,-1.99166,-2.08466,-0.56852,0.53939,-1.99166,-0.131454354
HEFNNWSXXWATRW-YHMJCDSINA-N,toluene,206.284,257.704,-28911.349999999995,-915.6980645161276,358.80400000000003,4.1579500000000005,9.458,9.794,-1.05671,-1.94946,-0.5605,0.62142,-1.05671,0.499580058
PJANXHGTPQOBST-VAWYXSNFNA-N,thf,180.249,233.489,-24277.436,-844.0697777777787,235.571,0.00492783,8.838999999999999,11.236,0.0,-1.91755,-0.19027,0.16247,0.0,0.064019253
QELSKZZBTMNZEB-UHFFFAOYNA-N,1-hexanol,180.203,215.647,-25910.684,-1032.3965454545469,220.564,4.52853,9.634,12.637,-1.51418,-0.6381100000000001,-0.61306,0.68747,-1.51418,0.201485308
XVOYSCVBGLVSOL-UDYUCESTNA-N,acetonitrile,169.152,168.124,-23873.498,-940.4720000000016,168.462,4.58692,12.498,11.714,-3.71162,-0.1750499999999999,-0.96625,2.51207,-1.74156,0.039809153
UJOBWOGCFQCDNV-UHFFFAOYNA-N,thf,167.21,198.372,-21977.518,-316.76760000000286,168.462,4.58692,9.049,10.859,0.0,-1.30424,-0.28864,0.29571,-0.28864,-0.364317045
WLJVXDMOQOGPHL-BGGKNDAXNA-N,thf,136.15,171.504,-22190.746,-1151.6922222222202,168.94799999999998,2.4909,9.546,12.124,-1.09925,-0.4966399999999999,-0.59979,0.67939,-1.09925,0.749736316
AYIRNRDRBQJXIF-SVGYMEAUNA-N,ethanol,358.211,313.801,-36248.014,-2053.5999999999985,168.94799999999998,2.4909,9.708,13.012,-3.18686,-1.48996,-1.00934,2.50504,-1.4803999999999995,-1.171683665
GVEPBJHOBDJJJI-UHFFFAOYNA-N,2-ethyl-1-hexanol,202.255,227.244,-23032.048,-468.1282040816259,168.94799999999998,2.4909,8.887,11.636,0.0,-1.63021,-0.15558,0.16598,0.0,-0.948787013
CPJSUEIXXCENMM-WXRBYKJCNA-N,chloroform,179.218,222.809,-26609.978000000003,-555.8835714285742,168.94799999999998,2.4909,11.158,7.963000000000001,-1.03792,-0.93496,-0.62478,0.65565,-1.48285,-0.36251027
SEEPANYCNGTZFQ-YHMJCDSINA-N,1-butanol,250.275,248.924,-26787.308,833.6336470588285,168.94799999999998,2.4909,9.654,12.006,-1.97037,-0.5458200000000001,-0.98821,2.55986,-1.57665,-3.369047574
YGSDEFSMJLZEOE-BGGKNDAXNA-N,1-pentanol,138.123,157.247,-21697.168,-550.355400000004,151.939,1.4668100000000002,9.371,12.528,-1.58593,0.14465,-0.59272,0.69218,-1.58593,0.217380932
WPYMKLBDIGXBTP-FZOZFQFYNA-N,1-propanol,122.123,151.267,-20884.288,-1153.2886500000022,151.939,1.4668100000000002,9.479,12.961,-1.09663,-0.1092999999999999,-0.61301,0.66566,-1.09663,0.33243846
FJKROLUGYXJWQN-BGGKNDAXNA-N,2-propanol,138.123,160.87,-21770.572,-932.6787142857102,151.939,1.4668100000000002,9.727,12.832999999999998,-1.58844,0.13493,-0.62122,0.68416,-1.58844,0.32108286
GVIJJXMXTUZIOD-UHFFFAOYNA-N,1-propanol,216.315,223.654,-23801.362,-802.7243157894736,151.939,1.4668100000000002,9.672,11.552,0.0,-1.29388,-0.14253,0.17712,-0.09468,-1.669788789
BOCJQSFSGAZAPQ-UHFFFAOYNA-N,cyclohexane,242.661,236.9,-25836.76,-665.2906530612236,256.833,1.4332600000000002,8.61,14.157,-0.97693,-0.1911299999999999,-0.49593,0.53988,-1.02553,-2.445763737