InChIkey,Solvent,MW,SASA,G_sol,DeltaG_sol,Volume,sol_dip,LsoluHsolv,LsolvHsolu,O_charges,C_charges,Most_neg,Most_pos,Het_charges,LogS
FOCAUTSVDIKZOP-JLSKMEETNA-N,dmso,94.4975,111.093,-18797.768000000004,-2164.9123333333373,202.974,4.522209999999999,8.366,12.243,-1.05942,0.3361899999999999,-0.57387,0.65487,-1.15709,1.048600266
ONUFSRWQCKNVSL-UHFFFAOYNA-N,hexane,334.116,260.826,-29331.314,88.01979999999458,202.974,4.522209999999999,9.468,15.276,0.0,0.75743,-0.09542,0.16328,-0.75744,-0.027135713
YLYIXDZITBMCIW-UHFFFAOYNA-N,1-octanol,213.235,241.864,-26766.550000000003,-952.451333333338,202.974,4.522209999999999,9.776,12.098,-0.92326,-0.89235,-0.58572,0.60878,-1.10946,0.061829307
YNPNZTXNASCQKK-UHFFFAOYNA-N,2-methyl-1-propanol,178.233,209.472,-22900.655999999995,-519.0761666666622,202.974,4.522209999999999,9.316,11.671,0.0,-1.633,-0.17509,0.1675,0.0,-0.960002791
JDCMOHAFGDQQJX-UHFFFAOYNA-N,chlorobenzene,272.097,214.933,-25527.078,111.64419999999882,202.974,4.522209999999999,7.487999999999999,9.689,0.0,0.65206,-0.08775,0.12304,-0.65207,0.457540151
BBEAQIROQSPTKN-UHFFFAOYNA-N,2-methyl-2-propanol,202.255,222.477,-22116.704,-8.595014925373107,202.974,4.522209999999999,8.977,11.347,0.0,-1.65822,-0.17838,0.16736,0.0,-1.468795938
YXVFYQXJAXKLAK-UHFFFAOYNA-N,chloroform,170.21,208.273,-23314.058,-972.1869999999944,202.974,4.522209999999999,11.121,8.323,-0.49076,-1.32242,-0.49076,0.34696,-0.49076,-1.0
RYYVLZVUVIJVGH-UHFFFAOYNA-N,1-octanol,194.193,207.032,-25915.678000000004,-1973.5156666666696,216.402,5.03833,9.698,12.222,-1.19819,0.32148,-0.60157,0.68762,-2.20925,-1.720415469
HYYBABOKPJLUIN-HCKMINDGNA-N,water,241.289,272.174,-28859.65400000001,-361.52480000000287,294.595,1.18415,10.867,12.614,-1.11207,-1.34274,-0.63248,0.68839,-1.54976,-5.23556668
MWPLVEDNUUSJAV-UHFFFAOYNA-N,1-chlorobutane,178.233,211.323,-21529.905999999995,709.6124571428627,294.595,1.18415,9.111999999999998,9.243,0.0,-1.62423,-0.19697,0.16897,0.0,-1.256565436
SJEBAWHUJDUKQK-UHFFFAOYNA-N,methylcyclohexane,236.27,258.481,-27153.032,-661.3237599999993,277.987,0.920057,8.852,14.306,-1.00924,-0.96252,-0.50837,0.53974,-1.00924,-1.446999998
YRHRIQCWCFGUEQ-UHFFFAOYNA-N,1-hexanol,212.266,221.762,-24684.174,-1491.0831785714254,236.332,3.14189,9.05,11.920000000000002,-0.58911,-0.79593,-0.58911,0.5903,-0.60035,-1.81678911
YLQWCDOCJODRMT-UHFFFAOYNA-N,2-methyl-2-butanol,180.206,204.757,-22278.28,-460.99627906976457,212.593,4.94388,8.833,12.511,-0.53419,-0.80328,-0.53419,0.58807,-0.53419,-0.397940009
MFFDJRYGVWMCQY-UHFFFAOYNA-N,acetonitrile,224.305,278.976,-27636.558,-489.6606666666557,212.593,4.94388,12.392,9.626,0.0,-1.94525,-0.41261,0.30718,-0.68151,-0.628932138
XRHGYUZYPHTUJZ-BGGKNDAXNA-N,1-octanol,156.568,170.601,-22626.064,-1225.2033333333347,167.556,1.98647,9.284,12.945,-1.07967,0.0707599999999999,-0.59882,0.66613,-1.16742,-0.920851461
VLYWMPOKSSWJAL-YAQRNVERNA-N,aniline,280.301,280.031,-29153.594000000005,124.6905833333294,167.556,1.98647,7.388,9.54,-2.29113,-0.95653,-0.98259,2.56208,-1.46852,-0.191600561
ZYVHVGJGLOEEKD-FQFUPTBWNA-N,chloroform,286.243,296.503,-31226.204,-1530.5249999999942,167.556,1.98647,9.37,9.576,-2.69588,0.2397699999999999,-0.59424,0.65675,-2.44603,-0.450624140974026
ZUOUZKKEUPVFJK-UHFFFAOYNA-N,"1,2-dichloroethane",154.211,198.095,-21947.354,-1128.7248148148135,167.556,1.98647,10.532,9.737,0.0,-1.59303,-0.17894,0.16262,0.0,0.550843061
BTJIUGUIPKRLHP-UHFFFAOYNA-N,water,139.11,158.024,-20858.294,2628.3369999999995,151.342,7.17708,10.227,14.009,-1.53336,-0.4844,-0.53421,0.87759,-0.65577,-0.74
WBYWAXJHAXSJNI-KZFATGLANA-N,1-hexanol,148.161,181.449,-22583.29,-323.7543750000041,182.878,4.04674,9.643,12.646999999999998,-1.0976400000000002,-0.44176,-0.63026,0.68888,-1.0976400000000002,-0.7504592138852458
XVULBTBTFGYVRC-HHUCQEJWNA-N,acetone,308.503,341.675,-35493.382,-1769.1080000000002,434.013,4.95902,11.035,10.627,-1.27566,-4.56017,-0.64672,0.4178,-1.27566,-0.235815838
JZFPYUNJRRFVQU-VEWCPZSHNA-N,acetone,282.222,274.923,-29636.344,-1499.252631578947,434.013,4.95902,9.036,9.677,-1.0930300000000002,0.5817,-0.61794,0.70382,-2.5365,-1.886056648
AFPHTEQTJZKQAQ-BGGKNDAXNA-N,1-heptanol,167.121,179.627,-23143.108,-1326.2402222222229,434.013,4.95902,8.579,13.612,-2.07958,0.0989,-0.58927,0.8616,-1.2179799999999998,-0.005787092
GVIJJXMXTUZIOD-UHFFFAOYNA-N,4-methyl-2-pentanol,216.315,223.654,-23746.706,-748.068315789471,239.669,2.0966,9.753,11.665,0.0,-1.29256,-0.14221,0.1763,-0.08837,-1.738905361