InChIkey,Solvent,MW,SASA,G_sol,DeltaG_sol,Volume,sol_dip,LsoluHsolv,LsolvHsolu,O_charges,C_charges,Most_neg,Most_pos,Het_charges,LogS
VLYWMPOKSSWJAL-YAQRNVERNA-N,dmf,280.301,279.479,-29316.276000000005,-37.99141666667128,299.526,5.25909,8.273,10.267,-2.30796,-0.95395,-0.98781,2.57178,-1.49113,-0.019488193
QGJZLNKBHJESQX-WRDJYESVNA-N,ethanol,456.707,433.31,-41359.586,-397.7791666666599,604.3720000000001,6.00703,10.932,12.588,-1.73544,-5.7645100000000005,-0.61872,0.62991,-1.73544,-1.744978179
GSBSDUZVSCTUKA-PKSOQXRJNA-N,dichloromethane,288.345,305.724,-29133.15,-456.8190666666669,604.3720000000001,6.00703,9.471,8.308,-1.10294,-1.7708,-0.60102,0.66535,-1.10294,-1.15490196
GJCOSYZMQJWQCA-UHFFFAOYNA-N,2-isopropoxyethanol,182.221,210.479,-22892.002,-883.6215121951245,218.73,2.10532,9.663,10.662,-0.36483,-1.32869,-0.36483,0.25132,-0.36483,-0.346874477
UFWIBTONFRDIAS-UHFFFAOYNA-N,"cis-1,3-dimethylcyclohexane",128.173,165.632,-19440.786000000004,155.9970303030277,165.041,0.000350526,9.841,12.727999999999998,0.0,-1.22596,-0.16916,0.15523,0.0,0.035510581
UFWIBTONFRDIAS-UHFFFAOYNA-N,octane,128.173,165.632,-19436.228000000003,160.55503030302862,165.035,0.000973165,10.271,12.788,0.0,-1.22603,-0.16917,0.15523,0.0,-0.038815658
QFOHBWFCKVYLES-UHFFFAOYNA-N,ethanol,194.23,237.461,-27211.662,-1142.1670769230805,165.035,0.000973165,9.78,12.662,-1.52765,-0.9067,-0.61294,0.6901,-1.52765,0.733552438
ILUJQPXNXACGAN-BGGKNDAXNA-N,methanol,152.149,179.052,-24594.302,-1710.6297837837883,177.12,5.53355,9.776,12.324,-1.48282,-0.07819,-0.62467,0.70678,-1.48282,0.260071388
GJCOSYZMQJWQCA-UHFFFAOYNA-N,methylcyclohexane,182.221,210.426,-22574.85,-566.4695121951263,218.229,1.67876,10.54,12.97,-0.34796,-1.27246,-0.34796,0.26181,-0.34796,-0.48148606
RZVAJINKPMORJF-BGGKNDAXNA-N,benzene,151.165,184.797,-24465.726,-1546.536684210525,218.229,1.67876,9.418,9.131,-1.06447,-0.41833,-0.62212,0.6476,-1.51646,-2.950357222
HYZJCKYKOHLVJF-FZOZFQFYNA-N,chloroform,118.138,147.573,-19838.996,-365.4648888888878,141.02700000000002,4.74012,10.92,8.518,0.0,-0.52876,-0.39765,0.2987,-0.62908,-1.252503113
JGMBHJNMQVKDMW-UHFFFAOYNA-N,toluene,291.176,286.456,-29887.484,-2037.4874285714288,141.02700000000002,4.74012,8.517,10.094,-0.5509,-1.34756,-0.5509,0.58609,-0.6810299999999999,-0.171536465
MSWPGMRTURVKRJ-UHFFFAOYNA-N,trifluoroethanol,211.263,259.082,-27084.186,-1418.5030000000042,141.02700000000002,4.74012,10.808,10.279,-0.38868,-1.39815,-0.39209,0.36937,-0.78077,0.439963936
UDUNORRTIFRHKX-LBOYIXSDNA-N,methanol,495.402,484.953,-45727.214,-1103.5490000000063,585.687,7.2109,9.835,11.325,-2.55969,-1.3282299999999998,-0.62028,0.67386,-3.79312,-1.455931956
WURBFLDFSFBTLW-UHFFFAOYNA-N,cyclohexane,210.232,240.004,-26397.46,-1386.814204081631,585.687,7.2109,9.038,14.174,-0.9469,-0.68344,-0.47345,0.42647,-0.9469,-1.01
MSWPGMRTURVKRJ-UHFFFAOYNA-N,acetonitrile,211.263,259.363,-27879.278,-2213.595000000001,585.687,7.2109,12.202,10.587,-0.38929,-1.3988699999999998,-0.39395,0.36951,-0.78324,0.427161403
BBEAQIROQSPTKN-UHFFFAOYNA-N,acetonitrile,202.255,222.477,-22120.462,-12.3530149253711,585.687,7.2109,11.291,9.591,0.0,-1.67327,-0.17882,0.16888,0.0,-1.005315275
SQNZJJAZBFDUTD-UHFFFAOYNA-N,2-propanol,134.221,191.187,-22419.598,49.05258064516602,585.687,7.2109,10.838,11.886,0.0,-2.35149,-0.49093,0.17122,0.0,-0.352940819
SJEBAWHUJDUKQK-UHFFFAOYNA-N,1-chlorobutane,236.27,258.693,-27262.130000000005,-770.4217600000047,278.077,0.928371,8.607999999999999,11.124,-1.08699,-0.93453,-0.54794,0.56152,-1.08699,-0.453
BGNGWHSBYQYVRX-UHFFFAOYNA-N,thf,149.192,191.57,-22850.562,-1184.4542857142878,278.077,0.928371,8.981,10.833,-0.60219,-0.91288,-0.60219,0.46541,-0.86202,0.397940009
CDVNZMKTJIBBBV-WXRBYKJCNA-N,1-octanol,226.145,221.507,-26370.716,-1287.8713333333253,230.665,4.71745,8.366,14.046,-2.9799,-0.16576,-0.56664,0.87547,-1.23401,-1.10200414
QECIGCMPORCORE-UHFFFAOYNA-N,benzene,206.243,230.225,-24707.892,-811.0568000000021,230.665,4.71745,8.272,9.347,-0.52564,-1.02244,-0.52564,0.42588,-0.52564,-0.307468529
XMTQQYYKAHVGBJ-XWKXFZRBNA-N,octane,233.097,243.288,-27055.655999999995,-2070.964479999995,230.665,4.71745,10.411,13.14,-0.59514,-0.24337,-0.59514,0.67252,-1.5659,-3.749999856
IPCSVZSSVZVIGE-HCKMINDGNA-N,heptane,256.428,355.105,-34765.338,-1163.1310000000012,230.665,4.71745,11.473,14.889,-1.05716,-3.5491900000000003,-0.55837,0.64091,-1.05716,-0.69136826
XMTQQYYKAHVGBJ-XWKXFZRBNA-N,decane,233.097,242.905,-26856.128,-1871.4364800000003,250.817,7.58344,10.258,13.209,-0.59552,-0.24328,-0.59552,0.67258,-1.56653,-3.670000424
GJCOSYZMQJWQCA-UHFFFAOYNA-N,1-hexanol,182.221,210.426,-22711.748,-703.3675121951237,250.817,7.58344,10.096,11.741,-0.36638,-1.33356,-0.36638,0.25035,-0.36638,-0.657577319
YLQWCDOCJODRMT-UHFFFAOYNA-N,2-methyl-1-propanol,180.206,204.757,-22310.38,-493.0962790697631,212.594,5.33335,8.725,12.346,-0.55496,-0.8042900000000001,-0.55496,0.59741,-0.55496,-0.602059991
CFOAUYCPAUGDFF-UHFFFAOYNA-N,acetonitrile,195.236,215.407,-24929.946,275.8087999999989,212.594,5.33335,12.46,11.347,-1.97071,-1.96674,-0.98591,2.47006,0.2504700000000002,0.274157849
CIWBSHSKHKDKBQ-JLAZNSOCNA-N,methanol,176.126,181.616,-24685.374,-754.3305000000037,184.2,7.25455,9.449,12.591,-2.90308,0.76561,-0.58742,0.64042,-2.90308,-0.578396073
OIGXDZJSRMPECU-UHFFFAOYNA-N,1-propanol,272.26,286.652,-29611.274,953.1453333333338,307.504,8.10985,8.855,12.133,-1.93579,-1.09541,-0.59099,0.87042,-1.24682,-1.301029996
SEEPANYCNGTZFQ-YHMJCDSINA-N,ethanol,250.275,249.042,-26840.688,780.2536470588238,268.026,9.49139,9.84,11.997,-1.97295,-0.54942,-0.98945,2.56065,-1.5786600000000002,-2.934256801
ZYVHVGJGLOEEKD-FQFUPTBWNA-N,1-hexanol,286.243,296.426,-30573.982,-878.302999999989,268.026,9.49139,8.379,13.189,-2.7487,0.25445,-0.61257,0.66561,-2.4879,-0.7504592138852458
CWRYPZZKDGJXCA-UHFFFAOYNA-N,m-xylene,154.211,187.008,-20896.002,465.92680000000473,268.026,9.49139,8.571,9.018,0.0,-1.5827,-0.29391,0.16345,0.0,0.121801942
ZFXYFBGIUFBOJW-FZOZFQFYNA-N,1-octanol,180.166,189.76,-23650.09,-882.6538461538439,268.026,9.49139,9.643,12.362000000000002,-1.19736,0.71071,-0.59905,0.68379,-2.3386,-1.996666666
NUVBSKCKDOMJSU-UHFFFAOYNA-N,1-decanol,166.176,200.297,-25098.438,-723.1069090909114,268.026,9.49139,9.683,12.687,-1.51362,-0.3831800000000001,-0.60489,0.68652,-1.51362,-0.207425383
NVKJOXRVEKMMHS-UHFFFAOYNA-N,1-pentanol,128.047,130.782,-21116.104,-1761.5894285714276,268.026,9.49139,5.977,14.891,-1.03332,0.54943,-0.41438,0.85291,-0.5494300000000001,-1.362216731
BSYNRYMUTXBXSQ-WXRBYKJCNA-N,3-methyl-1-butanol,180.16,197.813,-25019.366,-845.0841500000097,268.026,9.49139,9.047,13.261,-2.07196,0.32837,-0.59554,0.71669,-2.07196,-0.460923901
QRXWMOHMRWLFEY-BGGKNDAXNA-N,acetone,137.141,165.6,-22697.634,-1604.747199999998,268.026,9.49139,9.146,11.056,-0.63155,0.13465,-0.63155,0.55058,-1.69611,-0.915387632
ILUJQPXNXACGAN-BGGKNDAXNA-N,2-methyl-1-propanol,152.149,179.052,-24608.388,-1724.7157837837876,268.026,9.49139,9.537,12.473,-1.47686,-0.0778599999999999,-0.62063,0.70483,-1.47686,-0.387216143
IPCSVZSSVZVIGE-HCKMINDGNA-N,1-pentanol,256.428,358.593,-34380.49800000001,-778.2910000000047,268.026,9.49139,10.646,13.566,-1.11528,-3.58733,-0.61531,0.6642,-1.11528,0.090560699
NIHNNTQXNPWCJQ-UHFFFAOYNA-N,tert-butylcyclohexane,166.222,200.685,-21554.096,-151.96500000000017,268.026,9.49139,10.01,12.824000000000002,0.0,-1.58553,-0.32138,0.17629,0.0,-0.592381082
ISAOCJYIOMOJEB-UHFFFAOYNA-N,1-decanol,212.248,245.593,-26589.32,-917.547315789474,268.026,9.49139,9.446000000000002,12.873,-1.07648,-1.07648,-0.54048,0.51602,-1.07648,-1.75999326
WURBFLDFSFBTLW-UHFFFAOYNA-N,propionitrile,210.232,240.046,-25623.438,-612.7922040816302,268.026,9.49139,10.646,11.387,-1.0164,-0.67246,-0.50825,0.4509,-1.0164,0.178919379
ONUFSRWQCKNVSL-UHFFFAOYNA-N,chlorobenzene,334.116,260.826,-29250.646,168.68779999999242,287.921,0.000887789,8.091999999999999,10.734,0.0,0.79501,-0.09565,0.16747,-0.79501,0.478726908
DFYRUELUNQRZTB-UHFFFAOYNA-N,butanone,166.176,197.319,-24291.13,-347.97100000000137,287.921,0.000887789,9.127,9.818,-1.46737,-0.55717,-0.63732,0.63627,-1.46737,-0.179798541
GVEPBJHOBDJJJI-UHFFFAOYNA-N,2-methyl-2-butanol,202.255,227.244,-23011.832,-447.9122040816292,287.921,0.000887789,8.938,11.877,0.0,-1.61975,-0.15586,0.16497,0.0,-1.050658154
QECIGCMPORCORE-UHFFFAOYNA-N,toluene,206.243,229.614,-24770.398,-873.5627999999997,287.921,0.000887789,7.861,9.366,-0.51113,-1.03911,-0.51113,0.41937,-0.51113,-0.853871964
VYWYYJYRVSBHJQ-KZFATGLANA-N,2-butoxyethanol,212.118,207.577,-25222.118,-1316.357259259261,208.165,4.33204,7.846999999999999,13.39,-2.98997,0.2688899999999999,-0.56888,0.87008,-1.25034,-0.164175233
VRPJIFMKZZEXLR-DEPUQRHONA-N,hexane,175.184,212.051,-26786.33200000001,-404.1126153846199,212.935,0.797227,10.868,14.806,-2.13105,-0.061,-0.61226,0.73661,-2.60232,-0.602059991
RXKNNAKAVAHBNK-UHFFFAOYNA-N,methylcyclohexane,140.098,154.652,-20078.84,1449.3636842105298,212.935,0.797227,8.615,14.502,-1.48606,-0.81204,-0.53239,0.84901,-0.0247,-3.484126156
LXCFILQKKLGQFO-UHFFFAOYNA-N,formamide,152.149,181.686,-22988.622000000003,-1390.7822222222276,177.503,4.61826,9.845,10.72,-1.5041,-0.09657,-0.61984,0.68598,-1.5041,0.166614769
KZTYYGOKRVBIMI-UHFFFAOYNA-N,heptane,218.27,232.231,-26058.984,148.79991666666683,177.503,4.61826,10.523,14.16,-1.91184,-2.08226,-0.95594,2.42105,0.5092100000000002,-2.395773947
QELSKZZBTMNZEB-UHFFFAOYNA-N,ethanol,180.203,221.919,-26430.612,-1552.3245454545468,220.73,1.71242,9.769,12.663,-1.52205,-0.64086,-0.61961,0.68471,-1.52205,0.562538868
RZVAJINKPMORJF-BGGKNDAXNA-N,toluene,151.165,185.106,-23464.08,-544.890684210528,181.533,6.09785,9.056,9.193,-1.06464,-0.41819,-0.62275,0.6484,-1.51739,-2.827554882
WLJVXDMOQOGPHL-BGGKNDAXNA-N,ethanol,136.15,170.792,-21656.01,-616.956222222223,169.154,2.58533,10.407,12.698,-1.10021,-0.50055,-0.61457,0.68356,-1.10021,0.698013504
XQXPVVBIMDBYFF-KZFATGLANA-N,water,152.149,181.031,-22767.96,-869.0687500000022,179.782,2.97499,11.58,13.296,-1.61677,-0.24012,-0.61456,0.68064,-1.61677,-0.943095149
VRPJIFMKZZEXLR-DEPUQRHONA-N,dichloromethane,175.184,208.245,-26546.18,-163.96061538461436,215.159,4.60749,10.842,10.767,-2.21171,-0.0806799999999999,-0.63751,0.73383,-2.65023,0.617000341
HVYWMOMLDIMFJA-DPAQBDIFNA-N,1-heptanol,386.66,425.569,-39759.878,-998.4172727272816,215.159,4.60749,11.702,11.997,-0.62144,-6.02916,-0.62144,0.33398,-0.62144,-0.391469362
YKPUWZUDDOIDPM-ZDGHGLDFNA-N,cyclohexane,305.416,373.785,-36995.268,-240.67199999999136,215.159,4.60749,10.42,12.983,-1.43562,-2.51398,-0.59054,0.60953,-1.9182,-2.784676839
VHHHONWQHHHLTI-UHFFFAOYNA-N,toluene,236.74,176.295,-21902.592,-42.34930434782655,215.159,4.60749,7.515,12.015,0.0,0.29406,-0.04904,0.14703,-0.29406,0.283368123
SQNZJJAZBFDUTD-UHFFFAOYNA-N,hexane,134.221,191.116,-22618.348,-149.69741935483398,215.159,4.60749,11.537,13.105,0.0,-2.26452,-0.4811,0.1647,0.0,0.204914839
GVIJJXMXTUZIOD-UHFFFAOYNA-N,1-decanol,216.315,223.495,-23467.272,-468.6343157894698,239.576,2.04069,9.744,11.625,0.0,-1.29106,-0.1418,0.17538,-0.0812,-1.397940009
WZWYJBNHTWCXIM-ZTGFOJEANA-N,methanol,337.368,299.802,-31060.122,-278.4446666666663,343.313,6.28129,8.548,11.899,-3.03058,-0.76551,-0.99093,2.54101,-1.5459,-2.718768631
QFOHBWFCKVYLES-UHFFFAOYNA-N,water,194.23,239.749,-27306.238,-1236.7430769230778,343.313,6.28129,11.005,13.753,-1.53137,-0.91904,-0.62029,0.69251,-1.53137,-2.87347502
WURBVZBTWMNKQT-UHFFFAOYNA-N,acetonitrile,293.752,299.274,-30150.288,-1009.9757142857125,343.313,6.28129,11.887,11.13,-0.91762,-1.2441,-0.52742,0.4633,-1.70924,-0.552386603
MUMGGOZAMZWBJJ-DYKIIFRCNA-N,1-heptanol,288.429,299.764,-32066.038,-1268.3570000000036,343.313,6.28129,10.064,12.894,-1.23661,-3.25469,-0.63783,0.64119,-1.23661,-0.3358152
QIGBRXMKCJKVMJ-UHFFFAOYNA-N,2-propanol,110.112,138.675,-19096.396,133.3576666666704,343.313,6.28129,10.206,11.925999999999998,-1.00824,-0.43288,-0.50416,0.35554,-1.00824,0.319936489
BONIIQYTWOPUQI-BGGKNDAXNA-N,nitromethane,192.131,189.709,-23354.45,-590.439999999995,343.313,6.28129,9.246,10.323,-1.99688,0.69691,-0.52266,0.84972,-1.62273,-1.073847702
CWRYPZZKDGJXCA-UHFFFAOYNA-N,1-butanol,154.211,186.967,-21037.098,324.83080000000336,343.313,6.28129,9.668,11.457999999999998,0.0,-1.64931,-0.29948,0.17082,0.0,-0.593630165
JZFPYUNJRRFVQU-VEWCPZSHNA-N,1-octanol,282.222,276.337,-29567.094,-1430.00263157894,292.084,7.0251,9.178,11.868,-1.08707,0.58102,-0.61197,0.70116,-2.52499,-0.892251286
CWRYPZZKDGJXCA-UHFFFAOYNA-N,chloroform,154.211,186.967,-20961.464,400.4648000000016,292.084,7.0251,10.747,7.826,0.0,-1.61679,-0.29677,0.16719,0.0,0.325122883
DFXQXFGFOLXAPO-KZFATGLANA-N,2-methyl-2-propanol,201.566,197.296,-24489.358,-1222.476647058822,292.084,7.0251,8.783999999999999,13.73,-2.00578,0.20989,-0.58352,0.86236,-1.17064,-0.420216403
QECIGCMPORCORE-UHFFFAOYNA-N,thf,206.243,229.614,-25088.874,-1192.038800000002,292.084,7.0251,8.068999999999999,11.324,-0.56139,-1.06012,-0.56139,0.44558,-0.56139,0.119847713
RCINICONZNJXQF-GXKQXQCDNA-N,acetonitrile,853.918,673.29,-65358.846000000005,-893.2390000000087,292.084,7.0251,12.023,11.184,-7.40688,-1.6849899999999998,-0.62479,0.71885,-7.87922,-1.698970004
WPYMKLBDIGXBTP-FZOZFQFYNA-N,dmf,122.123,151.267,-20801.892,-1070.8926500000016,292.084,7.0251,8.574,11.302,-1.09157,-0.1098799999999999,-0.60769,0.66324,-1.09157,0.72320931
ISAOCJYIOMOJEB-UHFFFAOYNA-N,1-heptanol,212.248,240.923,-26656.786,-985.0133157894708,292.084,7.0251,9.343,12.528,-1.0940599999999998,-1.06096,-0.5527,0.51219,-1.0940599999999998,-1.711870591
HLNDPICGHQGWSU-UHFFFAOYNA-N,"1,2-dichloroethane",330.337,346.943,-36790.898,-1050.655500000008,377.751,3.34882,9.598,9.724,-2.8903600000000003,-0.8048,-0.63613,0.6286,-2.8903600000000003,-0.3109583450909091
DWMREKMVXIFPFM-RWWBHRBBNA-N,1-octanol,351.394,321.928,-34519.04,-2486.002083333333,377.751,3.34882,8.863999999999999,11.501,-2.96457,-0.91051,-0.97706,2.49094,-1.74476,-2.708564101
YRHRIQCWCFGUEQ-UHFFFAOYNA-N,2-ethyl-1-hexanol,212.266,221.762,-24527.424,-1334.3331785714254,377.751,3.34882,9.013,11.879,-0.58093,-0.79716,-0.58093,0.5864,-0.58968,-1.836207656
XRHGYUZYPHTUJZ-BGGKNDAXNA-N,sulfolane,156.568,170.601,-22576.202,-1175.3413333333338,377.751,3.34882,9.659,10.851,-1.0902500000000002,0.07509,-0.61033,0.67155,-1.1800000000000002,-0.839829845
KZTYYGOKRVBIMI-UHFFFAOYNA-N,"2,2,4-trimethylpentane",218.27,232.23,-26405.778,-197.9940833333312,249.679,6.7136,10.298,14.252,-1.91184,-2.08226,-0.95597,2.42105,0.5092100000000002,-2.510460838
WLJVNTCWHIRURA-PSPNOWEWNA-N,methanol,160.169,202.615,-24537.95,-42.6391999999978,249.679,6.7136,10.684,14.239,-2.23107,-0.1815399999999999,-0.6259,0.67171,-2.23107,0.39238413
LXCFILQKKLGQFO-UHFFFAOYNA-N,1-hexanol,152.149,181.337,-22909.932,-1312.0922222222252,249.679,6.7136,9.594,12.657,-1.49066,-0.0955199999999999,-0.60913,0.68147,-1.49066,0.082673777
QQVIHTHCMHWDBS-FLKJISBTNA-N,2-butanol,166.133,182.642,-24526.574,-1846.8058461538456,181.348,3.2659700000000003,9.132,13.596,-2.16378,0.71711,-0.60237,0.67379,-2.16378,-1.594847126
CWRYPZZKDGJXCA-UHFFFAOYNA-N,octane,154.211,187.008,-20937.588000000003,424.3407999999981,181.348,3.2659700000000003,10.45,12.511,0.0,-1.57084,-0.29291,0.16217,0.0,-0.374584648
ILUJQPXNXACGAN-BGGKNDAXNA-N,2-ethoxyethanol,152.149,179.13,-24014.78,-1131.107783783791,181.348,3.2659700000000003,8.997,11.72,-1.47037,-0.07611,-0.61626,0.70282,-1.47037,0.069462249
BBEAQIROQSPTKN-UHFFFAOYNA-N,m-xylene,202.255,222.477,-22098.71,9.398985074629309,181.348,3.2659700000000003,7.73,8.714,0.0,-1.58447,-0.1758,0.15988,0.0,-0.247512472
CFOAUYCPAUGDFF-UHFFFAOYNA-N,chloroform,195.236,221.208,-25156.722,49.03279999999722,181.348,3.2659700000000003,10.929,9.433,-1.92567,-1.90698,-0.96285,2.43552,0.2320099999999999,-0.677780705
YFLCNWFWKPUGTP-UHFFFAOYNA-N,ethanol,493.386,463.529,-42955.962,-699.7344999999987,181.348,3.2659700000000003,9.834,11.67,-2.57627,-0.97051,-0.64312,0.67164,-3.64449,-1.251811973
BSYNRYMUTXBXSQ-WXRBYKJCNA-N,thf,180.16,197.842,-25032.176000000007,-857.8941500000146,181.348,3.2659700000000003,8.395999999999999,12.622,-2.06793,0.32853,-0.59362,0.71558,-2.06793,0.31993844
SQNZJJAZBFDUTD-UHFFFAOYNA-N,cyclohexane,134.221,191.008,-22753.306000000004,-284.65541935484,195.076,0.00235012,11.106,12.865,0.0,-2.26866,-0.48162,0.16501,0.0,0.245935624
YNPNZTXNASCQKK-UHFFFAOYNA-N,butanone,178.233,209.472,-22853.786000000004,-472.20616666667047,219.356,0.0690199,9.142,9.342,0.0,-1.6336,-0.1751,0.16762,0.0,0.29746726
ZFXYFBGIUFBOJW-FZOZFQFYNA-N,methanol,180.166,189.876,-23762.122,-994.6858461538432,219.356,0.0690199,9.749,12.332,-1.21482,0.71621,-0.60844,0.68762,-2.3562,-1.706426678
VHNQIURBCCNWDN-PPMNOVJINA-N,ethylbenzene,109.13,142.985,-20704.53,-317.517666666663,219.356,0.0690199,9.299,9.589,0.0,-0.02591,-0.55516,0.38746,-1.52749,-2.287687597
RXKNNAKAVAHBNK-UHFFFAOYNA-N,1-butanol,140.098,154.652,-20195.462,1332.7416842105304,219.356,0.0690199,8.341999999999999,13.096,-1.61921,-0.73388,-0.61002,0.87333,-0.1349099999999999,-1.504455662
BMLIZLVNXIYGCK-WXRBYKJCNA-N,2-propanol,198.652,225.679,-25323.246,-1427.488551724131,227.962,7.34496,10.149,11.992,-0.67174,-0.4313699999999999,-0.67174,0.68283,-1.60411,-0.979999999
GPSDUZXPYCFOSQ-BGGKNDAXNA-N,2-ethoxyethanol,136.15,170.026,-21881.584,-687.9990857142839,227.962,7.34496,8.83,12.0,-1.08804,-0.48963,-0.60555,0.657,-1.08804,0.312497696
BBEAQIROQSPTKN-UHFFFAOYNA-N,2-propoxyethanol,202.255,222.477,-22115.418,-7.309014925369411,227.962,7.34496,8.428999999999998,10.037,0.0,-1.65149,-0.17818,0.16668,0.0,-0.534763588
HEFNNWSXXWATRW-YHMJCDSINA-N,ethanol,206.284,254.658,-28948.7,-953.0480645161332,227.962,7.34496,10.529,12.316,-1.10163,-1.96594,-0.60811,0.64381,-1.10163,0.209360117
RXKNNAKAVAHBNK-UHFFFAOYNA-N,3-methyl-1-butanol,140.098,154.652,-20194.088000000003,1334.1156842105263,227.962,7.34496,8.211,13.201,-1.61479,-0.73674,-0.60732,0.87258,-0.1310399999999999,-1.598599459
MWOOGOJBHIARFG-UHFFFAOYNA-N,1-propanol,152.149,179.592,-22792.774,-696.4626000000026,227.962,7.34496,9.293,12.018,-1.43257,-0.09842,-0.57317,0.45005,-1.43257,0.321283877
ZUOUZKKEUPVFJK-UHFFFAOYNA-N,2-methyl-1-pentanol,154.211,198.095,-21982.492,-1163.8628148148127,227.962,7.34496,9.947,12.174,0.0,-1.59556,-0.17922,0.16285,0.0,-0.247335504
RJKFOVLPORLFTN-LEKSSAKUNA-N,1-octanol,314.467,327.071,-33432.654,-1103.9090000000033,227.962,7.34496,10.081,13.087,-1.2429,-3.55646,-0.64851,0.64012,-1.2429,-0.709988463
ROAXLGSFGIOFMH-UHFFFAOYNA-N,1-butanol,296.343,308.763,-29497.012,-684.0863333333291,227.962,7.34496,9.369,12.459,-0.54684,-0.97444,-0.39297,0.33312,-1.32803,-0.820711807
NUVBSKCKDOMJSU-UHFFFAOYNA-N,water,166.176,201.814,-25103.272,-727.9409090909103,199.273,4.91957,11.006,13.747,-1.52888,-0.3759799999999998,-0.62441,0.68539,-1.52888,-2.139650012
JZFDKGFWNSQAHU-GPQMBLKYNA-N,thf,254.285,281.46,-29877.636,-470.9527999999955,199.273,4.91957,8.457999999999998,12.293,-1.62502,-0.89654,-0.58296,0.65481,-1.62502,-0.786879362
YSSSPARMOAYJTE-UHFFFAOYNA-N,methanol,360.406,355.184,-36141.59,-1127.1890588235328,431.219,0.797517,10.303,11.544,-2.5345,-1.30689,-0.47429,0.19645,-2.5345,-3.0
NJGBTKGETPDVIK-UHFFFAOYNA-N,acetone,164.204,210.208,-24574.49,-521.9869999999974,431.219,0.797517,10.154,9.783,-1.12223,-1.24785,-0.65045,0.64359,-1.12223,0.850060482
WBYWAXJHAXSJNI-KZFATGLANA-N,cyclohexane,148.161,181.687,-22692.488000000005,-432.952375000008,431.219,0.797517,9.916,13.82,-1.04072,-0.4259,-0.54895,0.65906,-1.04072,-2.107664184
YRHRIQCWCFGUEQ-UHFFFAOYNA-N,acetonitrile,212.266,221.762,-24999.716,-1806.6251785714269,236.332,3.23273,11.471,10.387,-0.59727,-0.79467,-0.59727,0.59408,-0.61092,-1.854016919
CMWTZPSULFXXJA-YAQRNVERNA-N,acetone,230.263,261.781,-28201.792,-572.5762499999946,277.45300000000003,4.8791400000000005,9.248,9.352,-1.49275,-1.10418,-0.60386,0.64338,-1.49275,-0.205960111
ZEYHEAKUIGZSGI-BGGKNDAXNA-N,1-butanol,152.149,180.342,-23307.908,-1821.386068965516,277.45300000000003,4.8791400000000005,9.559,12.53,-1.48576,-0.09709,-0.62109,0.68386,-1.48576,-0.920818754