InChIkey,Solvent,MW,SASA,G_sol,DeltaG_sol,Volume,sol_dip,LsoluHsolv,LsolvHsolu,O_charges,C_charges,Most_neg,Most_pos,Het_charges,LogS
CKAPSXZOOQJIBF-UHFFFAOYNA-N,2-methyl-2-butanol,284.784,220.81,-23572.816,1951.18185714286,230.454,5.767,8.854,13.083,0.0,0.05119,-0.00866,0.00862,-0.05118,-1.95696268
BBEAQIROQSPTKN-UHFFFAOYNA-N,"1,2-dichloroethane",202.255,222.477,-22116.31,-8.201014925372874,230.454,5.767,9.324,8.673,0.0,-1.6539,-0.17825,0.16692,0.0,-0.014194098
ZUOUZKKEUPVFJK-UHFFFAOYNA-N,cyclooctane,154.211,198.095,-21637.582,-818.9528148148165,230.454,5.767,10.28,13.611,0.0,-1.52948,-0.17207,0.15676,0.0,0.181196077
VYWYYJYRVSBHJQ-KZFATGLANA-N,2-butanol,212.118,207.639,-25309.354000000003,-1403.5932592592617,230.454,5.767,8.183,14.527,-3.0144,0.2827,-0.57634,0.87425,-1.26644,-0.49584639
BMLIZLVNXIYGCK-WXRBYKJCNA-N,chloroform,198.652,226.249,-25290.71,-1394.9525517241343,230.454,5.767,11.013,8.26,-0.64108,-0.41514,-0.64108,0.68007,-1.58084,-0.82
KSKWGMNRWCYVAT-UHFFFAOYNA-N,acetonitrile,256.255,279.709,-31267.918000000005,245.99142857142576,230.454,5.767,12.075,12.342,-3.05089,0.0316100000000001,-0.57953,0.68115,-3.05089,-1.380408216
OBKXEAXTFZPCHS-WXRBYKJCNA-N,water,164.204,211.193,-24295.804,-489.3543333333364,211.835,2.79793,11.948,13.555,-1.12014,-1.0651,-0.62216,0.67288,-1.12014,-2.0
CKAPSXZOOQJIBF-UHFFFAOYNA-N,2-pentanol,284.784,220.81,-23574.006,1949.991857142857,211.835,2.79793,8.966999999999999,12.837,0.0,0.06222,-0.01055,0.0105,-0.06222,-2.102647316
PVNIIMVLHYAWGP-FZOZFQFYNA-N,methanol,123.111,147.186,-20693.924,-454.2656363636343,211.835,2.79793,9.346,13.539,-1.08516,0.37244,-0.6058,0.68896,-1.48182,-1.188375355
XNERWVPQCYSMLC-KZFATGLANA-N,methanol,146.145,186.689,-22602.978,-87.6939999999995,211.835,2.79793,9.418,12.77,-1.07288,-0.1400999999999999,-0.60663,0.75143,-1.07288,0.460897843
XRHGYUZYPHTUJZ-BGGKNDAXNA-N,2-methyl-2-propanol,156.568,170.469,-22346.622,-945.761333333332,167.086,2.01151,9.34,13.23,-1.08202,0.0716299999999999,-0.60135,0.66733,-1.17021,-0.660345561
IQPNAANSBPBGFQ-UHFFFAOYNA-N,hexane,286.24,282.68,-30126.786,-605.283750000006,302.244,6.3389,9.919,13.741,-2.63722,0.0710499999999999,-0.6203,0.65815,-2.63722,-1.917822529
NJGBTKGETPDVIK-UHFFFAOYNA-N,1-butanol,164.204,201.468,-24494.09,-441.58699999999953,302.244,6.3389,10.246,12.058,-1.12264,-1.23594,-0.6467,0.65008,-1.12264,0.547009191
BLFLLBZGZJTVJG-UHFFFAOYNA-N,ethanol,165.191,206.405,-25758.176,-1619.582571428571,302.244,6.3389,9.926,12.029,-1.05231,-0.48668,-0.62847,0.6845,-1.5534,-0.244963384
CMWTZPSULFXXJA-GTNTULIANA-N,1-octanol,230.263,261.105,-27836.332,-150.3877714285736,302.244,6.3389,9.399,11.539,-1.47899,-1.09886,-0.59705,0.63876,-1.47899,-0.970590919
YGSDEFSMJLZEOE-BGGKNDAXNA-N,trifluoroethanol,138.123,157.307,-21909.518000000004,-762.7054000000062,302.244,6.3389,10.397,10.751,-1.59044,0.15186,-0.63002,0.69557,-1.59044,-1.091514981
VRPJIFMKZZEXLR-DEPUQRHONA-N,benzene,175.184,209.078,-27563.65,-1181.430615384612,215.02,1.6886,9.609,10.99,-2.13608,-0.0961899999999998,-0.60467,0.72619,-2.57882,-0.597589661
TYFQFVWCELRYAO-FLKJISBTNA-N,ethanol,174.196,223.18,-26064.868,-39.29599999999482,221.425,1.26774,10.705,14.312,-2.22345,-0.4501599999999999,-0.62531,0.66946,-2.22345,-0.340555577
VZCYOOQTPOCHFL-AOTPWWKUNA-N,water,116.073,135.483,-21243.048,-679.7429999999986,221.425,1.26774,10.379,15.760000000000002,-2.10438,0.93067,-0.58976,0.6598,-2.10438,-1.219753523
YNPNZTXNASCQKK-UHFFFAOYNA-N,2-propanol,178.233,209.472,-22908.202,-526.6221666666643,221.425,1.26774,9.605,11.741,0.0,-1.63449,-0.17516,0.16765,0.0,-0.899629455
FDDDEECHVMSUSB-FSHFIPFONA-N,acetone,172.201,184.046,-23193.992,-783.4524444444505,221.425,1.26774,10.026,9.803,-1.98224,-0.96319,-0.99923,2.55493,-0.8348499999999999,0.086082471
XMTQQYYKAHVGBJ-XWKXFZRBNA-N,2-ethyl-1-hexanol,233.097,243.095,-27068.288,-2083.59648,221.425,1.26774,9.632,11.976,-0.64946,-0.2611799999999999,-0.64946,0.67969,-1.61949,-1.214738105
WURBVZBTWMNKQT-UHFFFAOYNA-N,water,293.752,296.686,-30125.687999999995,-985.3757142857066,221.425,1.26774,10.764,13.442,-0.84596,-1.32404,-0.51959,0.42612,-1.61742,-3.609999808
JLKIGFTWXXRPMT-NDKGDYFDNA-N,cyclohexane,253.275,257.789,-29006.186,-1580.2277142857129,221.425,1.26774,10.419,13.304,-1.98105,-1.2915,-0.95307,2.53947,-0.99594,-5.856326447
CWRYPZZKDGJXCA-UHFFFAOYNA-N,"3,7-dimethyl-1-octanol",154.211,187.008,-20956.942,404.9868000000024,221.425,1.26774,9.629,11.419,0.0,-1.6325,-0.29804,0.16894,0.0,-0.542939421
NIHNNTQXNPWCJQ-UHFFFAOYNA-N,nonane,166.222,200.685,-21549.334,-147.2029999999977,207.02,0.566319,10.409,12.838,0.0,-1.58559,-0.32139,0.17629,0.0,-0.614642575
IMMLSOUHQHJKTL-LNNLXFCONA-N,chloroform,467.348,450.57,-43791.14,-1709.8505000000005,536.415,4.77658,10.758,8.068,-2.47791,-0.81144,-0.57972,0.66091,-3.59759,-1.045757491
SEEPANYCNGTZFQ-YHMJCDSINA-N,water,250.275,249.062,-26808.922,812.0196470588271,267.497,9.60128,11.086,13.076999999999998,-1.97897,-0.5499700000000001,-0.9925,2.56368,-1.58605,-2.559999727
QPPBRPIAZZHUNT-YAQRNVERNA-N,1-octanol,264.301,268.04,-28072.97,-317.1200000000026,289.302,6.92538,9.749,11.935,-1.96344,-0.86809,-0.98525,2.55009,-1.6478199999999998,-3.357999849
GVIJJXMXTUZIOD-UHFFFAOYNA-N,cyclooctane,216.315,223.495,-23372.448,-373.8103157894693,289.302,6.92538,9.886,12.909,0.0,-1.27736,-0.13936,0.16844,-0.03393,-1.061783832
RZVAJINKPMORJF-BGGKNDAXNA-N,peg400,151.165,185.356,-23179.19,-260.0006842105249,181.647,3.90841,9.459,9.956,-1.14425,-0.4298799999999999,-0.64541,0.66151,-1.5832700000000002,0.072720678
BBEAQIROQSPTKN-UHFFFAOYNA-N,water,202.255,222.477,-22122.648,-14.539014925372612,242.478,0.00198469,10.271,12.236999999999998,0.0,-1.67742,-0.17892,0.16929,0.0,-6.173333439
MWPLVEDNUUSJAV-UHFFFAOYNA-N,2-propanol,178.233,211.323,-21533.632,705.8864571428603,221.706,0.00323362,9.087,11.251,0.0,-1.64491,-0.19836,0.17116,0.0,-2.301029996
RGGYLRDGJAJICY-ZYMSVLFVNA-N,dmso,504.627,498.664,-43848.332,-656.4455000000089,631.154,3.77638,7.401,9.699,-1.47774,-3.06687,-0.63313,0.64209,-2.3245,-0.721246399
GJCOSYZMQJWQCA-UHFFFAOYNA-N,1-octanol,182.221,210.456,-22815.202,-806.8215121951253,631.154,3.77638,10.16,11.666,-0.36503,-1.32937,-0.36503,0.25117,-0.36503,-0.619394379
QGJZLNKBHJESQX-WRDJYESVNA-N,1-hexanol,456.707,428.815,-40263.74399999999,698.0628333333443,631.154,3.77638,10.728,12.591,-1.7256,-5.79772,-0.63787,0.62777,-1.7256,-1.589282999
QECIGCMPORCORE-UHFFFAOYNA-N,dmso,206.243,229.614,-25088.182000000004,-1191.3468000000066,244.669,5.57591,6.946,9.927,-0.56139,-1.06011,-0.56139,0.44558,-0.56139,-0.118848318
CMWTZPSULFXXJA-GTNTULIANA-N,chloroform,230.263,262.063,-28229.652,-543.7077714285733,277.999,4.44027,10.421,7.957000000000001,-1.45974,-1.08558,-0.58019,0.63189,-1.45974,-0.489157324
OTLNPYWUJOZPPA-BGGKNDAXNA-N,2-methyl-1-pentanol,167.121,179.815,-23275.76,-1400.201729729728,277.999,4.44027,8.115,13.543,-2.04659,0.0670899999999999,-0.57803,0.84171,-1.2048800000000002,-1.301029996
ASWVTGNCAZCNNR-WYUMXYHSNA-N,1-octanol,278.328,284.382,-29110.138000000006,30.236499999988155,312.841,7.64066,9.817,11.924,-1.96512,-1.20055,-0.9862,2.5513,-1.71862,-2.798000031
BBYDXOIZLAWGSL-BGGKNDAXNA-N,water,140.114,158.456,-22311.498,-1710.4000000000017,312.841,7.64066,10.753,14.413,-1.0967,0.1456099999999999,-0.61521,0.678,-1.25928,-2.045757491
NOCJXYPHIIZEHN-LBOYIXSDNA-N,methanol,399.396,382.696,-35779.448,-149.43449999999575,312.841,7.64066,9.285,11.64,-1.73563,-0.52303,-0.63584,0.74361,-2.87407,-0.78295535
GVEPBJHOBDJJJI-UHFFFAOYNA-N,2-pentanol,202.255,227.244,-23052.759999999995,-488.8402040816218,312.841,7.64066,8.991,11.677,0.0,-1.64447,-0.15653,0.16735,0.0,-1.030095655
FFGPTBGBLSHEPO-ZHLVXTBQNA-N,water,236.273,250.513,-26702.534,-847.3789999999972,312.841,7.64066,11.059,12.895,-0.68188,-0.6774,-0.68188,0.6954,-1.61762,-3.08549999
QTFHBEDSKOMZFW-CYSPOYASNA-N,acetonitrile,516.633,514.857,-49065.03599999999,1268.875600000014,312.841,7.64066,12.167,10.254,-3.346,-3.1013900000000003,-0.64096,0.72308,-4.29341,-0.903437701
VYWYYJYRVSBHJQ-KZFATGLANA-N,"1,4-dioxane",212.118,207.639,-24823.192,-917.4312592592578,208.642,3.96384,7.278,13.542,-2.84977,0.1923099999999999,-0.52779,0.84571,-1.1588600000000002,-0.014474483
KSKWGMNRWCYVAT-UHFFFAOYNA-N,dmf,256.255,272.98,-31527.354,-13.444571428568452,300.614,1.16218,8.723,12.236,-3.00801,-0.0122700000000001,-0.57286,0.67233,-3.00801,-1.133175154
PJANXHGTPQOBST-VAWYXSNFNA-N,toluene,180.249,233.489,-24138.598,-705.2317777777753,300.614,1.16218,8.667,9.252999999999998,0.0,-1.8448,-0.18526,0.15641,0.0,-0.257053258
ROAXLGSFGIOFMH-UHFFFAOYNA-N,o-xylene,296.343,311.468,-28875.748,-62.82233333332988,300.614,1.16218,8.096,9.953,-0.52862,-0.96535,-0.36938,0.31555,-1.24744,-1.779258017
LDZYRENCLPUXAX-UHFFFAOYSA-N,water,132.165,166.931,-21037.154,-1299.1126666666642,300.614,1.16218,11.328,13.241,0.0,-0.81891,-0.50642,0.31191,-0.75969,-1.959999998
YNPNZTXNASCQKK-UHFFFAOYNA-N,ethanol,178.233,209.472,-22815.876,-434.296166666667,300.614,1.16218,9.577000000000002,11.628,0.0,-1.63702,-0.1754,0.16801,0.0,-0.716065458
DWMREKMVXIFPFM-RWWBHRBBNA-N,1-hexanol,351.394,321.835,-33553.382,-1520.3440833333298,300.614,1.16218,8.807,11.571000000000002,-2.96991,-0.91059,-0.97908,2.49161,-1.7486099999999998,-2.956988837
WJFKNYWRSNBZNX-UHFFFAOYNA-N,cyclooctane,199.27,217.299,-24424.936,-1178.3160000000023,229.084,2.61222,10.087,12.295,0.0,-1.1699199999999998,-0.39578,0.27902,-0.39187,-1.953789347
FDDDEECHVMSUSB-FSHFIPFONA-N,cyclohexane,172.201,184.524,-22956.272,-545.7324444444457,184.491,6.284739999999999,10.397,13.351,-1.9301,-0.89999,-0.96521,2.49409,-0.8113900000000001,-6.811743858
RZVAJINKPMORJF-BGGKNDAXNA-N,3-methoxy-1-butanol,151.165,185.219,-23316.642,-397.45268421052606,181.699,3.87721,9.414,11.19,-1.14002,-0.4290899999999999,-0.6424,0.66137,-1.58093,-0.235094236
QYSPLQLAKJAUJT-HCKMINDGNA-N,1-octanol,331.345,310.534,-31628.128,-893.982,181.699,3.87721,8.927999999999999,12.082,-2.97336,-0.69711,-0.97155,2.5084,-1.93871,-2.637766352
VGEREEWJJVICBM-UHFFFAOYNA-N,2-butanol,274.273,281.718,-30655.142,-427.2275999999984,314.03,3.5742800000000003,9.611,12.178999999999998,-2.54956,-0.7481600000000002,-0.64973,0.67359,-2.54956,-0.825855875
PBZQTKRWYXTXIS-YQFGMCEENA-N,acetonitrile,464.606,472.031,-43650.078,-1285.6446666666598,594.9989999999999,4.4676100000000005,11.649,10.154,-1.28979,-3.39032,-0.65302,0.65722,-2.17043,-1.397940009
FFGPTBGBLSHEPO-ZHLVXTBQNA-N,1-propanol,236.273,250.275,-27275.614,-1420.4589999999953,277.733,5.42974,9.647,11.719,-0.6744,-0.67122,-0.6744,0.69419,-1.61206,-1.17531006
SJEBAWHUJDUKQK-UHFFFAOYNA-N,1-butanol,236.27,258.643,-27312.599999999995,-820.891759999995,277.733,5.42974,8.354,12.998,-1.1096,-0.92579,-0.55945,0.56754,-1.1096,-1.314999998
BONIIQYTWOPUQI-BGGKNDAXNA-N,ethanol,192.131,189.978,-23284.254,-520.2439999999915,195.3,6.98123,8.363000000000001,13.962,-1.99001,0.6943199999999999,-0.52082,0.84832,-1.61792,-1.541364341
PZPZDEIASIKHPY-UHFFFAOYNA-N,methanol,242.234,257.486,-27894.387999999995,-1172.2633333333324,195.3,6.98123,8.955,12.491,-1.65278,-0.70994,-0.59143,0.88027,-1.24778,-1.400666177
HYYBABOKPJLUIN-HCKMINDGNA-N,peg400,241.289,258.664,-28539.396000000004,-41.26680000000124,303.342,3.4178,9.293,10.061,-1.08634,-1.33295,-0.60636,0.69897,-1.50742,-1.054
BBEAQIROQSPTKN-UHFFFAOYNA-N,p-xylene,202.255,222.477,-22097.620000000003,10.488985074625816,303.342,3.4178,7.573,8.636999999999999,0.0,-1.58132,-0.17568,0.15956,0.0,-0.261214213
ZUOUZKKEUPVFJK-UHFFFAOYNA-N,dichloromethane,154.211,198.05,-21592.016,-773.386814814814,303.342,3.4178,10.662,9.426,0.0,-1.58828,-0.17824,0.16177,0.0,0.601639294
YNPNZTXNASCQKK-UHFFFAOYNA-N,nonane,178.233,209.472,-22962.676,-581.0961666666662,303.342,3.4178,9.984,12.628,0.0,-1.5442,-0.16869,0.158,0.0,-0.571865206
YGSDEFSMJLZEOE-BGGKNDAXNA-N,chlorobenzene,138.123,157.307,-21398.4,-251.587400000004,303.342,3.4178,8.599,9.622,-1.56664,0.1486599999999999,-0.61563,0.68851,-1.56664,-1.180456064
WURBFLDFSFBTLW-UHFFFAOYNA-N,dodecane,210.232,239.808,-26491.566,-1480.9202040816308,303.342,3.4178,9.229,14.112,-0.94691,-0.68339,-0.47347,0.42645,-0.94691,-0.965379688
YLQWCDOCJODRMT-UHFFFAOYNA-N,"2,2,4-trimethylpentane",180.206,204.757,-22234.61,-417.3262790697663,303.342,3.4178,9.418,13.518,-0.49039,-0.7978999999999999,-0.49039,0.56657,-0.49039,-1.15490196
WURBFLDFSFBTLW-UHFFFAOYNA-N,chlorobenzene,210.232,239.777,-26074.848,-1064.2022040816337,303.342,3.4178,8.177999999999999,10.097,-0.98466,-0.67515,-0.49241,0.4349,-0.98466,0.23
AIONOLUJZLIMTK-AWEZNQCLNA-N,ethanol,302.283,297.083,-30806.958,-889.6725714285603,331.652,7.583259999999999,9.594,11.927,-2.82842,-0.37145,-0.67694,0.6777,-2.82842,-1.038082539
WLJVXDMOQOGPHL-BGGKNDAXNA-N,2-propanol,136.15,171.198,-21574.132,-535.0782222222224,169.496,2.5586,10.432,12.814,-1.0983,-0.50042,-0.61215,0.68246,-1.0983,0.617210095
GSDSWSVVBLHKDQ-QVNXLTHBNA-N,ethanol,361.372,345.216,-34331.33,-742.4196666666758,169.496,2.5586,9.237,11.659,-2.08064,-0.46179,-0.6393,0.74444,-3.04237,-1.743533092
JYGXADMDTFJGBT-VWUMJDOONA-N,benzene,362.465,345.563,-37258.490000000005,-1354.1814000000086,445.461,3.2796,9.164,10.497,-2.71994,-2.53088,-0.57403,0.61037,-2.71994,-3.38900556
LDZYRENCLPUXAX-UHFFFAOYSA-N,2-methyl-2-propanol,132.165,167.428,-21108.268,-1370.2266666666656,445.461,3.2796,10.044,12.34,0.0,-0.81386,-0.5043,0.30678,-0.74813,0.123851641
ISAOCJYIOMOJEB-UHFFFAOYNA-N,2-ethoxyethanol,212.248,245.564,-26643.49,-971.7173157894758,259.492,2.20937,8.741,12.139,-1.08419,-1.0789,-0.54248,0.51912,-1.08419,-0.860539596
VGEREEWJJVICBM-UHFFFAOYNA-N,ethanol,274.273,281.186,-30109.652,118.26239999999962,259.492,2.20937,10.137,11.976,-2.53099,-0.7462300000000002,-0.67073,0.70002,-2.53099,-0.234339771
FJKROLUGYXJWQN-BGGKNDAXNA-N,dmf,138.123,160.877,-22056.264000000003,-1218.370714285713,259.492,2.20937,8.625,10.969,-1.58134,0.1333299999999999,-0.61476,0.6815,-1.58134,0.393926007
SKZKKFZAGNVIMN-FSHFIPFONA-N,1-propanol,137.138,161.072,-21212.906000000003,-713.6941176470573,156.651,7.182779999999999,9.673,12.472,-1.19391,0.06289,-0.69693,0.64896,-1.73589,-0.364516253
ZFXYFBGIUFBOJW-FZOZFQFYNA-N,ethanol,180.166,189.784,-23726.274,-958.8378461538488,156.651,7.182779999999999,9.768,12.438,-1.21154,0.71674,-0.60682,0.687,-2.35341,-1.527890049
AFPHTEQTJZKQAQ-BGGKNDAXNA-N,1-decanol,167.121,179.627,-23052.3,-1235.4322222222218,156.651,7.182779999999999,8.608,13.786,-2.06801,0.0934099999999999,-0.58359,0.85895,-1.20906,-0.112946154
WURBFLDFSFBTLW-UHFFFAOYNA-N,butanone,210.232,240.004,-25801.446,-790.8002040816318,247.976,0.00529052,8.365,10.686,-1.01279,-0.67315,-0.50644,0.4497,-1.01279,0.231831106
HYZJCKYKOHLVJF-FZOZFQFYNA-N,2-propanol,118.138,147.573,-19909.486,-435.9548888888894,247.976,0.00529052,10.07,12.261,0.0,-0.53625,-0.4341,0.30952,-0.65154,-0.014856
ZUOUZKKEUPVFJK-UHFFFAOYNA-N,"cis-1,3-dimethylcyclohexane",154.211,198.095,-21637.384,-818.7548148148126,201.279,0.00123116,10.375,13.224,0.0,-1.52949,-0.17206,0.15676,0.0,0.065907472
CDPKJZJVTHSESZ-KZFATGLANA-N,thf,170.595,190.803,-23134.312,-1275.0003333333334,201.279,0.00123116,9.183,12.029,-1.0939,-0.30218,-0.59725,0.67824,-1.20003,0.646951144
AQIXAKUUQRKLND-UHFFFAOYSA-N,methanol,252.337,295.05,-29683.534,-1278.9989999999998,310.695,6.166270000000001,10.579,11.908,0.0,-0.73859,-0.51297,0.43883,-2.46108,-0.244887734
PCZOHLXUXFIOCF-BXMDZJJMNA-N,methanol,404.545,433.04,-41106.232,-774.9153333333306,525.74,4.50594,10.568,11.752,-2.71912,-3.22295,-0.63132,0.72063,-2.71912,-1.065699368
LXCFILQKKLGQFO-UHFFFAOYNA-N,1-octanol,152.149,181.654,-22950.318,-1352.4782222222238,177.482,4.38963,9.657,12.59,-1.48635,-0.0949100000000001,-0.60583,0.68012,-1.48635,-0.083780779
DWCLXOREGBLXTD-UHFFFAOYNA-N,toluene,176.172,185.897,-24031.08200000001,311.5592857142801,177.482,4.38963,8.091999999999999,11.784999999999998,-1.82907,-1.854,-0.51413,0.72251,-0.38405,-1.707890217
XRHGYUZYPHTUJZ-BGGKNDAXNA-N,"1,4-dioxane",156.568,170.601,-21982.58,-581.7193333333344,177.482,4.38963,8.585,11.851,-1.03943,0.0551899999999999,-0.55802,0.64523,-1.11982,-0.477216707
RGGYLRDGJAJICY-ZYMSVLFVNA-N,"1,4-dioxane",504.627,501.669,-43985.306,-793.4195000000109,177.482,4.38963,8.595,10.492,-1.37739,-3.00095,-0.58231,0.62065,-2.25817,-0.721246399
FBPFZTCFMRRESA-FBXFSONDNA-N,acetonitrile,182.173,194.078,-27180.858,-950.730400000004,177.482,4.38963,13.801,11.954,-3.47039,0.06838,-0.59832,0.35997,-3.47039,-2.295279935
YNPNZTXNASCQKK-UHFFFAOYNA-N,2-methyl-1-pentanol,178.233,209.472,-22844.064,-462.48416666666526,177.482,4.38963,9.281,11.592,0.0,-1.62622,-0.17455,0.16681,0.0,-0.844907099
WNLRTRBMVRJNCN-AUDIXQRPNA-N,dimethylacetamide,146.143,179.251,-23883.082,-876.6045263157903,177.482,4.38963,10.408,12.72,-2.22873,0.0911,-0.62445,0.67174,-2.22873,0.456333636
XQXPVVBIMDBYFF-KZFATGLANA-N,acetone,152.149,181.304,-23005.704,-1106.812750000001,177.482,4.38963,10.057,9.946,-1.60824,-0.2382099999999999,-0.60803,0.67773,-1.60824,-0.040958608
BBYDXOIZLAWGSL-BGGKNDAXNA-N,dmso,140.114,158.456,-21751.538,-1150.4400000000023,177.482,4.38963,7.407,11.405,-1.08635,0.1416999999999999,-0.60394,0.67277,-1.24737,0.622080463
GPSDUZXPYCFOSQ-BGGKNDAXNA-N,water,136.15,170.207,-22019.550000000003,-825.9650857142879,164.556,4.18702,10.863,13.79,-1.09855,-0.48937,-0.61687,0.66204,-1.09855,-2.139999976
JZFPYUNJRRFVQU-VEWCPZSHNA-N,formamide,282.222,276.511,-29053.25,-916.1586315789428,294.163,4.23344,9.422,10.023,-1.10366,0.5817399999999999,-0.60811,0.70673,-2.54654,-1.236572006
GFLHGSIWKATBCA-UHFFFAOYNA-N,heptane,304.398,245.172,-27423.47,-1857.055428571428,294.163,4.23344,9.964,13.972,-0.39375,-0.41371,-0.39375,0.19823,-0.64847,-0.243162946
RISDZDVHYCURHD-JZUIEBFJNA-N,ethanol,877.042,755.539,-68591.438,904.9988000000012,294.163,4.23344,8.627,11.775,-5.97729,-3.86451,-0.62068,0.72047,-7.33355,-1.978604977
RJKGJBPXVHTNJL-UHFFFAOYNA-N,2-methyl-1-butanol,173.171,192.125,-22416.598,-266.0828780487791,294.163,4.23344,8.563,12.239,-1.01085,-1.06417,-0.50714,0.85747,-0.15338,-0.566753123
YLQWCDOCJODRMT-UHFFFAOYNA-N,2-ethyl-1-hexanol,180.206,204.757,-22293.034,-475.7502790697654,294.163,4.23344,8.78,12.262,-0.54156,-0.80377,-0.54156,0.59145,-0.54156,-0.455931956
DTXVKPOKPFWSFF-MDVJYLRGNA-N,ethanol,129.549,146.036,-19739.704,151.16949999999997,136.926,8.40767,9.209,13.277,0.0,-0.0081299999999999,-0.53645,0.27194,-0.95048,-1.456920728
XQXPVVBIMDBYFF-KZFATGLANA-N,2-propanol,152.149,181.304,-23005.404,-1106.512750000005,179.573,2.90686,10.365,12.326,-1.60776,-0.2381399999999999,-0.60767,0.67756,-1.60776,0.427486109
QTFHBEDSKOMZFW-CYSPOYASNA-N,toluene,516.633,499.388,-51042.76200000002,-708.8504000000103,655.353,2.26685,9.174,8.979,-3.2166,-2.96918,-0.61667,0.72154,-4.17009,-0.698970004
ILUJQPXNXACGAN-BGGKNDAXNA-N,1-butanol,152.149,179.13,-23871.692000000003,-988.0197837837914,177.362,5.46673,9.605,12.427,-1.47632,-0.0763399999999999,-0.62027,0.70481,-1.47632,-0.244125144
JLKIGFTWXXRPMT-NDKGDYFDNA-N,peg400,253.275,255.39,-28737.282,-1311.3237142857142,177.362,5.46673,9.409,10.331,-2.06988,-1.29198,-0.97305,2.59348,-1.10701,-0.07
DBUKZZKLTUXIQM-UHFFFAOYNA-N,toluene,362.335,373.003,-38597.588,-369.7005000000063,400.535,2.2467200000000003,8.344999999999999,9.581,-3.5558,0.23371,-0.55572,0.64821,-3.5558,-2.698970004
RXKNNAKAVAHBNK-UHFFFAOYNA-N,1-heptanol,140.098,154.652,-20183.5,1344.70368421053,400.535,2.2467200000000003,8.374,12.987,-1.60669,-0.74196,-0.60238,0.87119,-0.12399,-1.653647026
FAOHQGXEASKQDL-AHPDCHJINA-N,water,215.685,249.238,-28330.302000000003,-2301.2805454545523,253.449,7.00205,10.839,13.786,0.0,-0.1044299999999999,-0.56737,0.49486,-2.42307,-3.802999685
RGGYLRDGJAJICY-ZYMSVLFVNA-N,thf,504.627,501.466,-44170.92199999999,-979.035499999998,253.449,7.00205,8.271999999999998,11.294,-1.48308,-3.10314,-0.63572,0.65693,-2.31627,-0.552841969
BONIIQYTWOPUQI-BGGKNDAXNA-N,butanone,192.131,189.988,-23372.238,-608.2279999999955,195.195,6.929819999999999,7.92,11.691,-1.9832,0.69128,-0.51908,0.84724,-1.6129600000000002,-0.849470815
PJANXHGTPQOBST-VAWYXSNFNA-N,2-methyl-2-butanol,180.249,234.019,-25454.628,-2021.2617777777773,238.0,0.00388122,9.875,12.175,0.0,-1.90622,-0.19354,0.16619,0.0,-1.274915743