InChIkey,Solvent,MW,SASA,G_sol,DeltaG_sol,Volume,sol_dip,LsoluHsolv,LsolvHsolu,O_charges,C_charges,Most_neg,Most_pos,Het_charges,LogS
QFOHBWFCKVYLES-UHFFFAOYNA-N,1-propanol,194.23,236.937,-26850.28,-780.785076923079,244.11,4.58839,9.623,12.568,-1.51905,-0.91396,-0.61867,0.68933,-1.51905,0.517236663
QGJZLNKBHJESQX-WRDJYESVNA-N,methanol,456.707,431.048,-41225.594,-263.7871666666615,244.11,4.58839,10.879,12.501,-1.73814,-5.75378,-0.64734,0.63131,-1.73814,-2.099842093
PVNIIMVLHYAWGP-FZOZFQFYNA-N,water,123.111,147.06,-20861.436,-621.7776363636367,139.246,1.44819,10.612,14.72,-1.08895,0.37712,-0.60841,0.69069,-1.48981,-0.767090574
PEGCITODQASXKH-UHFFFAOYNA-N,benzene,216.219,242.345,-27133.651999999995,-55.25371428570361,139.246,1.44819,9.395,10.309,-0.95152,-2.67153,-0.95152,1.45683,0.50531,-0.141475019
MWPLVEDNUUSJAV-UHFFFAOYNA-N,cyclohexane,178.233,211.323,-21521.374,718.1444571428619,139.246,1.44819,9.259,12.281,0.0,-1.55636,-0.19284,0.16168,0.0,-1.853871964
VRPJIFMKZZEXLR-DEPUQRHONA-N,ethanol,175.184,207.872,-26354.86,27.35938461538899,214.949,4.76732,10.43,13.553,-2.23082,-0.07828,-0.64712,0.73578,-2.66766,0.610060585
XRHGYUZYPHTUJZ-BGGKNDAXNA-N,methanol,156.568,170.469,-22793.622000000003,-1392.7613333333356,167.086,2.0763000000000003,9.392,12.91,-1.08914,0.07454,-0.60911,0.67098,-1.17868,-0.719234336
FDDDEECHVMSUSB-FSHFIPFONA-N,1-octanol,172.201,184.659,-23856.396,-1445.8564444444455,167.086,2.0763000000000003,10.209,11.979,-2.0004,-0.92449,-1.00068,2.53055,-0.8613000000000002,-2.489999942
RZVAJINKPMORJF-BGGKNDAXNA-N,2-butoxyethanol,151.165,185.177,-23254.64,-335.45068421052565,167.086,2.0763000000000003,9.769,10.647,-1.13636,-0.4281699999999999,-0.63909,0.66064,-1.57728,-0.328890891
DNKGZSOYWMQDTK-KZFATGLANA-N,1-butanol,281.093,250.332,-27759.716,-2170.631999999998,241.651,3.83654,8.952,13.053999999999998,-0.92672,-0.66013,-0.62962,0.69069,-1.42672,0.50594175
FJKROLUGYXJWQN-BGGKNDAXNA-N,1-octanol,138.123,161.02,-21951.248000000003,-1113.3547142857133,241.651,3.83654,9.585,12.644000000000002,-1.5787,0.1326499999999999,-0.61265,0.68058,-1.5787,-0.084395818
LULAYUGMBFYYEX-BGGKNDAXNA-N,2-butoxyethanol,156.568,170.452,-22130.18,-943.6788571428552,241.651,3.83654,8.963999999999999,11.804,-1.07109,0.06843,-0.59242,0.65922,-1.15709,0.039437787
ISAOCJYIOMOJEB-UHFFFAOYNA-N,ethylbenzene,212.248,245.272,-26540.628000000004,-868.8553157894785,241.651,3.83654,8.462,10.364,-1.0313599999999998,-1.06004,-0.52767,0.49763,-1.0313599999999998,-1.439655294
QUEKGYQTRJVEQC-KZFATGLANA-N,1-hexanol,201.566,196.096,-25150.362,-1642.4806086956523,241.651,3.83654,8.395,13.489,-2.05064,0.2530499999999999,-0.56917,0.86677,-1.2207,-0.193820026
GVEPBJHOBDJJJI-UHFFFAOYNA-N,2-butanol,202.255,227.244,-23055.134,-491.2142040816252,241.651,3.83654,8.95,11.805,0.0,-1.64759,-0.15673,0.16765,0.0,-1.121435277
YRHRIQCWCFGUEQ-UHFFFAOYNA-N,o-xylene,212.266,221.762,-24133.312,-940.2211785714244,236.332,2.74765,7.891000000000001,9.471,-0.54956,-0.80132,-0.54956,0.57056,-0.5481900000000001,-1.284048716
SWJPEBQEEAHIGZ-UHFFFAOYNA-N,3-methyl-1-butanol,235.906,168.859,-20969.064,-1949.631176470593,166.74800000000002,0.0031232,9.594,12.738,0.0,-0.5506300000000001,-0.13936,0.18507,-0.1892599999999999,-0.37087621
VPHHJAOJUJHJKD-KZFATGLANA-N,2-propanol,191.013,187.61,-23573.684,-1926.010969696963,166.74800000000002,0.0031232,9.218,13.034,-1.07069,0.24025,-0.5956,0.66683,-1.18331,-0.638099947
RZVAJINKPMORJF-BGGKNDAXNA-N,1-butanol,151.165,185.329,-23294.484,-375.2946842105266,181.5,3.97409,10.005,11.725,-1.15186,-0.43115,-0.65124,0.66276,-1.58925,-0.303839179
VZCYOOQTPOCHFL-KHGLRPAFNA-N,ethanol,116.073,139.716,-21304.682,-1143.59,181.5,3.97409,8.884,14.797,-2.08772,0.9245,-0.57719,0.65186,-2.08772,-0.503240713
YLQWCDOCJODRMT-UHFFFAOYNA-N,cyclohexane,180.206,204.757,-22237.382,-420.0982790697672,212.588,4.24101,9.214,13.51,-0.49295,-0.79834,-0.49295,0.56789,-0.49295,-0.823908741
ISWSIDIOOBJBQZ-UHFFFAOYNA-N,cyclohexane,94.1128,129.012,-18509.034,-565.7343999999975,118.903,1.55885,10.651,13.38,-0.47809,-0.66001,-0.47809,0.33963,-0.47809,0.602059991
VZCYOOQTPOCHFL-AOTPWWKUNA-N,ethanol,116.073,139.416,-20746.382,-183.0770000000012,118.903,1.55885,8.865,14.71,-2.09125,0.92844,-0.58469,0.65393,-2.09125,0.532754379
NRPFNQUDKRYCNX-KZFATGLANA-N,methanol,166.176,200.53,-24570.458,-774.6343333333389,118.903,1.55885,10.371,11.955,-1.51006,-0.46113,-0.61283,0.67972,-1.51006,0.396393301
PJANXHGTPQOBST-VAWYXSNFNA-N,1-octanol,180.249,233.443,-24258.971999999994,-825.6057777777714,118.903,1.55885,9.695,11.696000000000002,0.0,-1.91396,-0.19003,0.16215,0.0,-1.101362281
LXCFILQKKLGQFO-UHFFFAOYNA-N,1-propanol,152.149,181.543,-22974.948,-1377.1082222222249,118.903,1.55885,9.596,12.582,-1.49576,-0.0956899999999999,-0.61314,0.68321,-1.49576,0.238311728
DKYWVDODHFEZIM-GPQMBLKYNA-N,peg400,254.285,285.902,-31003.268000000004,-2173.356222222217,311.194,3.61766,8.704,11.173,-1.6631,-0.90749,-0.596,0.63936,-1.6631,-0.02
ZFXYFBGIUFBOJW-FZOZFQFYNA-N,thf,180.166,189.86,-23593.178,-825.7418461538473,311.194,3.61766,8.790999999999999,11.899,-1.19948,0.7118900000000001,-0.60109,0.68464,-2.34137,-1.537921579
HEFNNWSXXWATRW-RILOQBQWNA-N,methanol,206.284,253.196,-29514.654,-2791.701199999996,311.194,3.61766,10.59,12.19,-1.10565,-1.96705,-0.60902,0.64504,-1.10565,0.27220554
NIHNNTQXNPWCJQ-UHFFFAOYNA-N,ethanol,166.222,200.685,-21655.97,-253.839,311.194,3.61766,9.99,11.853,0.0,-1.66904,-0.32648,0.18496,0.0,-0.904915618
BBEAQIROQSPTKN-UHFFFAOYNA-N,2-butanol,202.255,222.477,-22117.294,-9.185014925373252,242.492,0.00167268,8.886,11.259,0.0,-1.66368,-0.17853,0.16792,0.0,-1.330947748
SJEBAWHUJDUKQK-UHFFFAOYNA-N,2-propanol,236.27,258.506,-27377.192,-885.4837599999992,242.492,0.00167268,8.572,13.114,-1.11202,-0.92531,-0.56069,0.56814,-1.11202,-1.478999997
DFXQXFGFOLXAPO-KZFATGLANA-N,4-methyl-2-pentanol,201.566,197.343,-24444.122,-1177.2406470588212,242.492,0.00167268,8.749,13.57,-2.00445,0.2099099999999999,-0.58291,0.86178,-1.16974,-0.638272164
BGRJTUBHPOOWDU-QDYITYEQNA-N,methanol,341.424,353.289,-36039.596,-1861.1334285714183,242.492,0.00167268,9.777,11.899,-3.03239,-1.80126,-0.99617,2.57365,-2.17717,-1.28452916
ISAOCJYIOMOJEB-UHFFFAOYNA-N,2-propoxyethanol,212.248,240.995,-26451.798000000003,-780.0253157894767,242.492,0.00167268,8.82,11.702,-1.10266,-1.05279,-0.56195,0.49923,-1.10266,-1.018812425
BOCJQSFSGAZAPQ-UHFFFAOYNA-N,1-octanol,242.661,236.9,-25935.268,-763.7986530612216,242.492,0.00167268,8.32,12.88,-1.06688,-0.13115,-0.53763,0.5665,-1.13177,-1.968540434
VLYWMPOKSSWJAL-YAQRNVERNA-N,thf,280.301,270.732,-28971.752,306.5325833333336,242.492,0.00167268,8.238,11.573,-2.2564,-1.00605,-0.96401,2.54331,-1.4464200000000005,-3.254512444
ODVLMCWNGKLROU-KZFATGLANA-N,thf,180.16,196.556,-23554.53,-87.3127999999997,198.557,2.52737,9.149,11.373,-1.83701,0.16119,-0.59749,0.67862,-1.83701,0.363098629
VYWYYJYRVSBHJQ-KZFATGLANA-N,thf,212.118,207.639,-25219.834000000003,-1314.0732592592612,198.557,2.52737,7.341999999999999,13.896,-3.00226,0.2758299999999999,-0.57262,0.87219,-1.25842,0.219747047
GPSDUZXPYCFOSQ-BGGKNDAXNA-N,1-heptanol,136.15,169.911,-21857.232,-663.6470857142849,198.557,2.52737,9.489,12.588,-1.08771,-0.48923,-0.60491,0.65687,-1.08771,0.143871414
HEFNNWSXXWATRW-RILOQBQWNA-N,2-methyl-1-propanol,206.284,256.833,-28378.196000000004,-1655.2431999999972,279.854,3.14149,10.218,12.39,-1.0976,-1.97523,-0.62162,0.64274,-1.0976,0.262382973
SQNZJJAZBFDUTD-UHFFFAOYNA-N,1-decanol,134.221,191.291,-22660.636,-191.98541935483445,279.854,3.14149,10.73,11.777,0.0,-2.33567,-0.48953,0.17002,0.0,-0.097693666
SWJPEBQEEAHIGZ-UHFFFAOYNA-N,1-octanol,235.906,168.859,-20968.074,-1948.641176470592,166.789,0.00277058,9.79,12.562,0.0,-0.54958,-0.13951,0.18442,-0.18779,-0.283387425
HXEWMTXDBOQQKO-UHFFFAOYNA-N,acetonitrile,198.051,198.276,-23158.048,-1474.6799999999969,204.489,3.0532,11.247,10.878,0.0,-0.39491,-0.41677,0.23405,-0.57888,-1.023673465
YNPNZTXNASCQKK-UHFFFAOYNA-N,octane,178.233,209.472,-22991.772,-610.1921666666676,204.489,3.0532,10.146999999999998,12.694,0.0,-1.54414,-0.16867,0.15803,0.0,-0.565431096
HEFNNWSXXWATRW-YHMJCDSINA-N,2-methyl-1-propanol,206.284,257.493,-28941.496,-945.844064516128,204.489,3.0532,10.335,12.357,-1.10118,-1.97613,-0.60451,0.64326,-1.10118,0.245512668
UFWIBTONFRDIAS-UHFFFAOYNA-N,"1,2-dichloroethane",128.173,165.632,-19450.616,146.1670303030296,165.054,0.00253091,10.0,9.24,0.0,-1.28353,-0.17604,0.16258,0.0,0.520034145
SXYIRMFQILZOAM-HVNFFKDJNA-N,acetone,298.378,293.97,-31434.624,1897.716499999995,359.85299999999995,4.197080000000001,9.272,10.598,-2.01864,-2.0705,-0.57553,0.54585,-2.01864,0.29946248
BMLIZLVNXIYGCK-WXRBYKJCNA-N,hexadecane,198.652,226.317,-25806.156,-1910.3985517241344,229.279,6.17516,10.449,12.847,-0.60239,-0.39312,-0.60239,0.67509,-1.5481,-3.529999886
MWPLVEDNUUSJAV-UHFFFAOYNA-N,m-xylene,178.233,211.323,-21523.734,715.7844571428577,221.698,0.00098026,7.752000000000001,8.709,0.0,-1.56949,-0.19359,0.1631,0.0,-1.186421237
VZCYOOQTPOCHFL-KHGLRPAFNA-N,1-octanol,116.073,139.416,-20725.664000000004,-564.5720000000038,125.495,3.71929,8.729,14.621,-2.07528,0.91857,-0.57493,0.64895,-2.07528,-1.119999997
VGEREEWJJVICBM-UHFFFAOYNA-N,methanol,274.273,280.202,-30633.892000000007,-405.9776000000056,316.631,6.149139999999999,10.036,11.922,-2.5342,-0.7516400000000001,-0.6741,0.6975,-2.5342,-0.253193006
VPHHJAOJUJHJKD-KZFATGLANA-N,1-octanol,191.013,187.623,-24032.09,-2384.416969696962,316.631,6.149139999999999,9.063,12.849,-1.06478,0.2352599999999999,-0.58852,0.66377,-1.17507,-0.813323704
SQNZJJAZBFDUTD-UHFFFAOYNA-N,tert-butylcyclohexane,134.221,191.415,-22997.554,-528.9034193548323,195.473,0.00242718,10.913,12.71,0.0,-2.26891,-0.48172,0.16503,0.0,0.134605611
WMKGGPCROCCUDY-PHEQNACWNA-N,methanol,234.297,291.652,-29196.28,-1090.068666666666,302.21,5.508220000000001,9.314,12.402,-0.61524,-1.73819,-0.61524,0.62434,-0.61524,-0.993160152
CKAPSXZOOQJIBF-UHFFFAOYNA-N,1-pentanol,284.784,220.81,-23573.612,1950.3858571428573,302.21,5.508220000000001,8.905000000000001,12.759,0.0,0.06292,-0.01066,0.01059,-0.06292,-2.025028006
WNLRTRBMVRJNCN-AUDIXQRPNA-N,toluene,146.143,183.02,-23955.384000000005,-948.9065263157936,302.21,5.508220000000001,9.476,11.872,-2.11012,0.04992,-0.56981,0.64171,-2.11012,-3.337456694
OTLNPYWUJOZPPA-BGGKNDAXNA-N,2-methyl-2-butanol,167.121,179.704,-23064.998,-1189.4397297297255,302.21,5.508220000000001,8.207,13.849,-2.02019,0.05569,-0.56557,0.83532,-1.18487,-0.769551079
XRHGYUZYPHTUJZ-BGGKNDAXNA-N,2-methyl-1-propanol,156.568,170.601,-22991.636,-1590.7753333333312,302.21,5.508220000000001,9.144,13.064,-1.08545,0.07312,-0.60507,0.6691,-1.17429,-0.985163365
CPJSUEIXXCENMM-WXRBYKJCNA-N,1-butanol,179.218,224.995,-26472.648,-418.55357142857247,302.21,5.508220000000001,10.056,11.623,-1.07978,-0.9277,-0.651,0.66276,-1.51801,-0.460971257
XNGIFLGASWRNHJ-FLKJISBTNA-N,dmso,166.133,179.807,-22924.208,-235.70114285714223,302.21,5.508220000000001,7.108,11.515,-2.1102,0.65824,-0.57929,0.65557,-2.1102,0.555349404
ISAOCJYIOMOJEB-UHFFFAOYNA-N,methanol,212.248,241.192,-26719.576000000005,-1047.8033157894788,302.21,5.508220000000001,9.412,12.705,-1.11924,-1.05716,-0.56829,0.50529,-1.11924,-1.118714108
JWAZRIHNYRIHIV-UHFFFAOYNA-N,"2,2,4-trimethylpentane",144.173,175.366,-21151.95,-229.09446153846147,176.437,1.15284,9.964,12.873,-0.47319,-0.99201,-0.47319,0.35471,-0.47319,-1.953510299
PEGCITODQASXKH-UHFFFAOYNA-N,ethylbenzene,216.219,242.382,-27361.87,-283.471714285708,176.437,1.15284,9.036,10.389,-0.95409,-2.67238,-0.95409,1.45705,0.50296,-0.741672652
GVIJJXMXTUZIOD-UHFFFAOYNA-N,methylcyclohexane,216.315,223.495,-23372.844000000005,-374.2063157894772,176.437,1.15284,10.102,12.759,0.0,-1.27736,-0.13938,0.16844,-0.03395,-1.302095627
BMLIZLVNXIYGCK-WXRBYKJCNA-N,1-decanol,198.652,226.556,-25868.096,-1972.3385517241368,230.545,7.08243,10.027,11.899,-0.65736,-0.42476,-0.65736,0.6819,-1.59216,-1.160000001
LULAYUGMBFYYEX-BGGKNDAXNA-N,1-butanol,156.568,170.452,-22200.05,-1013.548857142854,230.545,7.08243,9.226,12.864999999999998,-1.0783,0.0714899999999999,-0.59984,0.66294,-1.16583,-0.007017033
CDVNZMKTJIBBBV-WXRBYKJCNA-N,2-propoxyethanol,226.145,221.212,-26273.846,-1191.00133333333,230.545,7.08243,7.859999999999999,13.036,-2.97583,-0.1656399999999999,-0.56536,0.87482,-1.23101,-0.14380771
KZTYYGOKRVBIMI-UHFFFAOYNA-N,3-methyl-1-butanol,218.27,232.017,-26109.11,98.67391666667028,249.668,7.53561,9.722,13.013,-1.99285,-2.10035,-0.99647,2.45637,0.4635200000000001,-1.382115627
ZFXYFBGIUFBOJW-FZOZFQFYNA-N,1-propanol,180.166,189.783,-23690.066,-922.6298461538464,194.146,4.49701,9.595,12.352,-1.20888,0.71556,-0.60558,0.6865,-2.35069,-1.692669072
SQNZJJAZBFDUTD-UHFFFAOYNA-N,propionitrile,134.221,191.195,-22355.414,113.23658064516712,195.315,0.00357923,12.654,10.194,0.0,-2.35671,-0.49216,0.1716,0.0,0.014313907
NQTPEBUGIFUYEC-UHFFFAOYNA-N,trifluoroethanol,227.262,267.855,-27690.874,-679.9236666666657,274.74,2.90906,10.557,10.014,-0.86978,-1.15276,-0.48755,0.35871,-1.23855,-1.142667504
MKASXAGBWHIGCF-UHFFFAOYNA-N,"1,2-dichloroethane",199.252,241.788,-25956.72600000001,-1235.340800000009,274.74,2.90906,10.571,8.875,-0.39632,-1.4662000000000002,-0.51968,0.43489,-0.84419,0.328555582
BXRFQSNOROATLV-UHFFFAOYNA-N,thf,151.121,171.355,-21944.844,641.6990000000005,167.055,4.56588,7.485999999999999,12.95,-1.53543,-0.20639,-0.53046,0.84225,-0.6931799999999999,-0.055517328
CWRYPZZKDGJXCA-UHFFFAOYNA-N,1-propanol,154.211,187.008,-20981.300000000003,380.6287999999986,167.055,4.56588,9.688,11.377,0.0,-1.65101,-0.29962,0.171,0.0,-0.654822383
GSBSDUZVSCTUKA-PKSOQXRJNA-N,dmf,288.345,306.087,-29038.31600000001,-361.98506666667527,167.055,4.56588,7.964,9.355,-1.10479,-1.77971,-0.61624,0.6698,-1.10479,0.274133272
NIHNNTQXNPWCJQ-UHFFFAOYNA-N,1-octanol,166.222,200.735,-21530.558,-128.42699999999604,208.392,0.686067,9.884,11.761,0.0,-1.65598,-0.32565,0.18357,0.0,-0.61698348
MWPLVEDNUUSJAV-UHFFFAOYNA-N,cyclopentanol,178.233,211.323,-21534.032,705.4864571428589,208.392,0.686067,8.901,11.287,0.0,-1.64074,-0.19803,0.17072,0.0,-1.809334612
IPCSVZSSVZVIGE-HCKMINDGNA-N,methanol,256.428,350.879,-35446.504,-1844.296999999999,208.392,0.686067,10.711,13.505,-1.11578,-3.52834,-0.62876,0.66763,-1.11578,-0.568636236
WPYMKLBDIGXBTP-FZOZFQFYNA-N,ethanol,122.123,151.225,-20893.136,-1162.1366500000004,208.392,0.686067,9.65,13.046,-1.09795,-0.10913,-0.61441,0.66628,-1.09795,0.443250819
YRHRIQCWCFGUEQ-UHFFFAOYNA-N,trifluoroethanol,212.266,221.762,-24908.866,-1715.775178571428,208.392,0.686067,10.078,10.078,-0.5954,-0.79497,-0.5954,0.59322,-0.6085,-0.916929647
VYWYYJYRVSBHJQ-KZFATGLANA-N,1-decanol,212.118,207.639,-25160.004000000004,-1254.2432592592631,208.185,4.31002,8.168000000000001,14.507,-2.98209,0.26446,-0.56649,0.86874,-1.24514,-0.744261277
NUVBSKCKDOMJSU-UHFFFAOYNA-N,1-propanol,166.176,200.304,-24542.366,-167.0349090909076,208.185,4.31002,9.61,12.577000000000002,-1.52698,-0.3842799999999999,-0.61376,0.69087,-1.52698,0.304640321
ZUOUZKKEUPVFJK-UHFFFAOYNA-N,cyclohexane,154.211,198.095,-21637.582,-818.9528148148165,201.279,0.00131591,10.436,13.36,0.0,-1.52948,-0.17207,0.15676,0.0,0.21625881
KZNICNPSHKQLFF-JSWHHWTPNA-N,methanol,99.089,123.988,-18351.128,-412.1163333333316,111.033,3.11057,9.987,13.995,-1.1841499999999998,0.4831599999999999,-0.59237,0.64133,-1.66154,0.267502687
ALYNCZNDIQEVRV-BGGKNDAXNA-N,1-octanol,137.138,166.019,-21727.338,-826.4022758620667,111.033,3.11057,9.744,12.003,-1.11414,0.0243599999999998,-0.62218,0.68151,-1.61071,-0.954341436
BBEAQIROQSPTKN-UHFFFAOYNA-N,2-ethoxyethanol,202.255,222.477,-22116.506,-8.397014925372787,111.033,3.11057,8.235,10.429,0.0,-1.65733,-0.17836,0.16727,0.0,-0.517400927
BBEAQIROQSPTKN-UHFFFAOYNA-N,cyclohexanone,202.255,222.477,-22119.478,-11.36901492537072,242.492,0.00163385,8.429,8.922,0.0,-1.66525,-0.17859,0.16807,0.0,0.00242782
JGMBHJNMQVKDMW-UHFFFAOYNA-N,acetone,291.176,286.824,-29531.822000000007,-1681.8254285714356,323.827,4.40555,9.43,10.308,-0.61101,-1.35,-0.61101,0.61656,-0.7672800000000001,-0.394916556
FDDDEECHVMSUSB-FSHFIPFONA-N,2-propanol,172.201,184.263,-23044.57,-634.0304444444482,323.827,4.40555,10.336,12.182,-1.98188,-0.96374,-0.99896,2.55519,-0.83419,-1.666494911
POULHZVOKOAJMA-NDKGDYFDNA-N,1-pentanol,200.32,282.398,-29380.196,-398.4960000000028,323.827,4.40555,10.561,13.775,-1.10975,-2.51908,-0.6223,0.66475,-1.10975,0.321010226
BOCJQSFSGAZAPQ-UHFFFAOYNA-N,acetonitrile,242.661,236.9,-25976.676,-805.2066530612246,323.827,4.40555,10.689,11.402,-1.08889,-0.11579,-0.54758,0.57277,-1.15807,-1.499547969
YLQWCDOCJODRMT-UHFFFAOYNA-N,1-propanol,180.206,204.757,-22307.902,-490.6182790697676,323.827,4.40555,8.816,12.213,-0.55618,-0.80438,-0.55618,0.59794,-0.55618,-0.420216403
OIGXDZJSRMPECU-UHFFFAOYNA-N,chloroform,272.26,287.61,-29618.400000000005,946.0193333333264,309.055,8.86983,9.896999999999998,8.659,-1.87196,-1.0922,-0.55802,0.85806,-1.20068,0.148910993
LNEPOXFFQSENCJ-UHFFFAOYNA-N,1-butanol,375.87,393.976,-36357.802,-1115.87022222222,309.055,8.86983,9.361,11.863,-1.20855,-2.06234,-0.6146,0.61169,-1.8383,-1.028624059
CKAPSXZOOQJIBF-UHFFFAOYNA-N,tert-butylcyclohexane,284.784,220.81,-23577.564,1946.43385714286,239.638,0.00122206,8.892,13.986999999999998,0.0,0.02406,-0.00407,0.00408,-0.0240599999999999,-1.5638808
ZWLPBLYKEWSWPD-BGGKNDAXNA-N,1-heptanol,136.15,166.84,-22456.153999999995,-1448.0712499999936,239.638,0.00122206,9.661,12.618,-1.09469,-0.49146,-0.61882,0.68016,-1.09469,0.10720997
JDCMOHAFGDQQJX-UHFFFAOYNA-N,"trans-1,4-dimethylcyclohexane",272.097,214.933,-25504.17,134.5521999999983,239.638,0.00122206,8.411,13.741,0.0,0.6139,-0.08279,0.11865,-0.61389,-0.218913752
NIHNNTQXNPWCJQ-UHFFFAOYNA-N,octane,166.222,200.685,-21508.716,-106.58499999999547,239.638,0.00122206,10.572,12.904,0.0,-1.58551,-0.32138,0.17628,0.0,-0.630282648
IIUZTXTZRGLYTI-LKUJNTHKNA-N,water,354.787,333.521,-36481.958,-1179.2280000000028,398.555,6.87308,10.515,13.544999999999998,-2.70355,-0.6600199999999999,-0.59529,0.62727,-2.72891,-4.559999796
RJKGJBPXVHTNJL-UHFFFAOYNA-N,2-ethyl-1-hexanol,173.171,192.122,-22429.278,-278.7628780487794,398.555,6.87308,8.638,12.227,-1.00197,-1.06084,-0.50222,0.85337,-0.1486,-0.583505583
KRKNYBCHXYNGOX-CUNNJMNPNA-N,"1,2-propanediol",192.125,189.823,-26116.396,-961.2238181818138,201.646,2.96435,9.796,13.978,-3.70005,1.26932,-0.6092,0.67763,-3.70005,-0.228993114
PCZOHLXUXFIOCF-BXMDZJJMNA-N,ethanol,404.545,418.454,-42326.518,-1995.201333333338,534.543,7.40343,10.648,11.845,-2.72177,-3.2062,-0.63143,0.73416,-2.72177,-1.114224432
XPCTZQVDEJYUGT-UHFFFAOYNA-N,acetone,126.112,149.081,-20558.686,-552.4037500000013,534.543,7.40343,9.405,10.247,-1.33921,-0.04694,-0.61776,0.56887,-1.33921,-0.629747459
JZFPYUNJRRFVQU-VEWCPZSHNA-N,cyclohexane,282.222,276.563,-28607.650000000005,-470.55863157895146,534.543,7.40343,9.347,13.235,-1.05449,0.55746,-0.54866,0.67977,-2.43946,-2.1124032833770494
OTLNPYWUJOZPPA-BGGKNDAXNA-N,2-pentanol,167.121,179.815,-23236.534,-1360.9757297297256,176.952,4.50091,8.309,13.552,-2.05017,0.06871,-0.57974,0.84258,-1.2075900000000002,-1.096910013
PJANXHGTPQOBST-VAWYXSNFNA-N,ethylbenzene,180.249,233.479,-24135.826,-702.4597777777781,176.952,4.50091,8.689,9.273,0.0,-1.8448,-0.18523,0.15641,0.0,-0.369721969
YZMCKZRAOLZXAZ-WYUMXYHSNA-N,"1,4-dioxane",278.328,275.778,-29079.716000000004,-327.1660000000011,176.952,4.50091,8.997,11.022,-1.86663,-1.20866,-0.93351,2.51288,-1.63935,-1.548956444
WPYMKLBDIGXBTP-FZOZFQFYNA-N,chlorobenzene,122.123,151.267,-20650.83,-919.8306500000036,144.24200000000002,3.23071,8.729,10.085,-1.0783900000000002,-0.11127,-0.59413,0.65686,-1.0783900000000002,-0.070581074
VLYWMPOKSSWJAL-YAQRNVERNA-N,toluene,280.301,280.072,-29511.824,-233.53941666666287,144.24200000000002,3.23071,8.139,9.78,-2.22114,-0.97469,-0.95453,2.51591,-1.3907700000000005,-3.421521245
SKZKKFZAGNVIMN-FSHFIPFONA-N,ethanol,137.138,161.123,-21121.68,-622.4681176470549,144.24200000000002,3.23071,9.844,12.556,-1.19637,0.06234,-0.69923,0.64898,-1.7370100000000002,-0.194499142