InChIkey,Solvent,MW,SASA,G_sol,DeltaG_sol,Volume,sol_dip,LsoluHsolv,LsolvHsolu,O_charges,C_charges,Most_neg,Most_pos,Het_charges,LogS
WPYMKLBDIGXBTP-FZOZFQFYNA-N,benzene,122.123,151.267,-20476.736,-745.7366500000026,144.24200000000002,2.91716,8.860000000000001,10.557,-1.04945,-0.1140199999999999,-0.56579,0.64253,-1.04945,-0.084828205
XRHGYUZYPHTUJZ-BGGKNDAXNA-N,1-heptanol,156.568,170.601,-22713.952,-1313.09133333333,144.24200000000002,2.91716,9.253,12.902,-1.08085,0.07126,-0.60009,0.66674,-1.16882,-0.899873487
HEFNNWSXXWATRW-RILOQBQWNA-N,1-octanol,206.284,256.885,-28073.18,-1350.2271999999905,144.24200000000002,2.91716,10.405,12.255,-1.09306,-1.97383,-0.59976,0.63999,-1.09306,0.273916586
AFPHTEQTJZKQAQ-BGGKNDAXNA-N,1-octanol,167.121,179.518,-23194.938,-1378.0702222222208,176.915,3.9033,8.610999999999999,13.658,-2.07794,0.0985699999999999,-0.58701,0.86116,-1.21678,-0.024130309
RGGYLRDGJAJICY-ZYMSVLFVNA-N,toluene,504.627,501.425,-43935.246,-743.3595000000059,633.618,4.68376,8.283999999999999,9.172,-1.42031,-2.99492,-0.6009,0.62076,-2.27576,-1.522878745
QFOHBWFCKVYLES-UHFFFAOYNA-N,1-butanol,194.23,240.007,-26831.442,-761.9470769230793,633.618,4.68376,9.582,12.657,-1.52215,-0.90129,-0.61786,0.68394,-1.52215,0.680708588
LXCFILQKKLGQFO-UHFFFAOYNA-N,1-decanol,152.149,181.511,-22948.762,-1350.9222222222234,633.618,4.68376,9.668,12.694,-1.48144,-0.0943600000000001,-0.60203,0.67845,-1.48144,-0.323324754
AQIXAKUUQRKLND-UHFFFAOYSA-N,ethanol,252.337,271.148,-29760.712,-1356.1769999999997,308.03000000000003,10.59,10.708,11.979,0.0,-0.7729099999999999,-0.51669,0.43486,-2.46974,-0.829738285
NJGBTKGETPDVIK-UHFFFAOYNA-N,ethanol,164.204,210.44,-24601.222,-548.7189999999973,212.203,4.25136,10.436,12.048,-1.12465,-1.24819,-0.65061,0.64441,-1.12465,0.770805034
KZTYYGOKRVBIMI-UHFFFAOYNA-N,1-propanol,218.27,232.038,-25475.901999999995,731.8819166666726,212.203,4.25136,9.875,12.821000000000002,-1.99703,-2.1011,-0.99866,2.45795,0.4609199999999999,-1.159477139
CMWTZPSULFXXJA-YAQRNVERNA-N,ethanol,230.263,261.442,-28861.608,-1232.3922499999862,212.203,4.25136,9.507,11.64,-1.48972,-1.10375,-0.62145,0.64314,-1.48972,-0.615047864
ZEYHEAKUIGZSGI-BGGKNDAXNA-N,1-tert-butoxy-2-propanol,152.149,180.598,-23556.358,-2069.8360689655165,212.203,4.25136,9.146999999999998,11.5,-1.47266,-0.09668,-0.61088,0.67929,-1.47266,-0.733592603
RZVHIXYEVGDQDX-UHFFFAOYNA-N,2-propanol,208.216,221.415,-23773.818,-209.34599999999773,212.203,4.25136,8.549,13.292000000000002,-1.1064,-0.305,-0.55334,0.56116,-1.1064,-2.977338665
QCXJEYYXVJIFCE-QIQUEDJNNA-N,methanol,179.175,206.906,-25526.572000000004,-1039.8904000000002,206.846,5.45952,9.502,12.387,-1.74139,0.15022,-0.63352,0.68148,-2.19606,-0.721246399
VPHHJAOJUJHJKD-KZFATGLANA-N,2-methyl-2-propanol,191.013,187.66,-25210.154,-3562.480969696968,206.846,5.45952,9.121,13.133,-1.06705,0.23784,-0.59091,0.66504,-1.17836,-0.431530253
AIONOLUJZLIMTK-AWEZNQCLNA-N,water,302.283,302.497,-30652.434,-735.1485714285627,206.846,5.45952,10.82,13.081,-2.84417,-0.3571899999999999,-0.68281,0.67978,-2.84417,-5.340535869
SZTDSGCADFWGKM-UHFFFAOYNA-N,methanol,224.236,259.605,-30366.376,3292.530666666677,206.846,5.45952,13.018,13.277,-2.81717,-2.65996,-1.03273,1.48902,-1.32815,0.239330751
QVPPQDAPAFWTCK-DZQFSFFNNA-N,peg400,306.769,317.525,-30601.446,-702.3211999999949,335.707,4.13183,8.472,10.288,-0.59109,0.17154,-0.68821,0.56764,-2.61396,-0.521454208
QYSPLQLAKJAUJT-HCKMINDGNA-N,acetone,331.345,311.502,-31841.658,-1107.5119999999988,347.733,7.550409999999999,8.76,9.979,-2.98903,-0.6716099999999999,-0.9728,2.50283,-1.98511,-1.313418987
BOCJQSFSGAZAPQ-UHFFFAOYNA-N,hexadecane,242.661,236.9,-25836.762,-665.2926530612276,347.733,7.550409999999999,8.717,13.96,-0.97693,-0.1911299999999999,-0.49593,0.53988,-1.02553,-2.412211273
HYYBABOKPJLUIN-HCKMINDGNA-N,1-propanol,241.289,258.091,-28538.696,-40.56679999999324,347.733,7.550409999999999,9.916,11.815,-1.08134,-1.33628,-0.6014,0.70046,-1.506,-1.50747806
IQPNAANSBPBGFQ-UHFFFAOYNA-N,ethanol,286.24,281.559,-28843.354,678.1482499999984,301.776,8.601790000000001,9.173,12.483,-2.84617,0.1368599999999999,-0.64533,0.68472,-2.84617,-1.50543419
KBOPZPXVLCULAV-KZFATGLANA-N,thf,153.137,171.419,-22414.538,-591.1167999999998,301.776,8.601790000000001,8.446,11.043,-1.58203,0.2820100000000001,-0.5842,0.67795,-2.08911,0.922947117
LPEPZBJOKDYZAD-LILDFLRNNA-N,cyclohexane,281.234,278.683,-28818.869999999995,-500.7773333333244,301.776,8.601790000000001,9.599,13.023,-1.06707,0.02919,-0.55545,0.66143,-2.04081,-1.924988244
LDHQCZJRKDOVOX-GSMIJIFMNA-N,toluene,86.0902,125.316,-19556.836000000003,-504.4250000000029,301.776,8.601790000000001,8.886999999999999,11.316,-1.07312,-0.17445,-0.58139,0.66975,-1.07312,0.546542663
JDCMOHAFGDQQJX-UHFFFAOYNA-N,"cis-1,3-dimethylcyclohexane",272.097,214.933,-25503.674000000003,135.04819999999745,301.776,8.601790000000001,8.379999999999999,13.849999999999998,0.0,0.61395,-0.0828,0.11864,-0.61395,-0.160115317
GPSDUZXPYCFOSQ-BGGKNDAXNA-N,1-pentanol,136.15,169.896,-21875.34,-681.7550857142851,301.776,8.601790000000001,9.457,12.622,-1.09053,-0.4892499999999999,-0.60817,0.65819,-1.09053,0.206065696
VZCYOOQTPOCHFL-AOTPWWKUNA-N,benzene,116.073,139.716,-20684.668,-121.3630000000012,301.776,8.601790000000001,7.997000000000001,12.204,-1.99567,0.8705099999999999,-0.53316,0.62608,-1.99567,-3.411514954
BSYNRYMUTXBXSQ-WXRBYKJCNA-N,1-propanol,180.16,198.419,-25572.442000000003,-1398.1601500000106,301.776,8.601790000000001,9.184,13.080000000000002,-2.07561,0.32599,-0.60856,0.7139,-2.07561,0.013854987
DWMREKMVXIFPFM-RWWBHRBBNA-N,acetophenone,351.394,321.716,-33757.128000000004,-1724.0900833333362,301.776,8.601790000000001,8.475000000000001,8.110999999999999,-2.97584,-0.91207,-0.98165,2.49429,-1.7527,-1.722468622
BBEAQIROQSPTKN-UHFFFAOYNA-N,1-chlorobutane,202.255,222.477,-22110.858,-2.749014925371739,242.479,0.00133176,9.087,9.252,0.0,-1.64383,-0.17793,0.16591,0.0,-0.251979819
CKAPSXZOOQJIBF-UHFFFAOYNA-N,octane,284.784,220.81,-23576.968,1947.0298571428573,239.638,0.000955576,9.454,14.067,0.0,0.02408,-0.00407,0.0041,-0.02409,-1.643974143
ZUOUZKKEUPVFJK-UHFFFAOYNA-N,1-propanol,154.211,198.095,-22087.314,-1268.6848148148165,201.28,0.00388945,10.075,12.12,0.0,-1.60243,-0.17997,0.16345,0.0,-0.234048892
LNEPOXFFQSENCJ-UHFFFAOYNA-N,dmf,375.87,387.929,-35761.95999999999,-520.0282222222158,201.28,0.00388945,8.504000000000001,10.02,-1.22014,-2.07018,-0.62862,0.60076,-1.84254,-0.354089671
HEFNNWSXXWATRW-YHMJCDSINA-N,acetone,206.284,256.744,-28288.87,-293.2180645161316,279.716,3.0764000000000005,10.232,10.07,-1.10012,-1.97835,-0.60657,0.64303,-1.10012,0.718841479
WURBFLDFSFBTLW-UHFFFAOYNA-N,2-butoxyethanol,210.232,239.927,-25864.778,-854.1322040816303,279.716,3.0764000000000005,8.372,11.897,-1.00265,-0.67494,-0.50135,0.44623,-1.00265,-0.305023622
CKAPSXZOOQJIBF-UHFFFAOYNA-N,1-heptanol,284.784,220.81,-23573.906000000003,1950.091857142856,239.641,0.00303767,8.923,12.73,0.0,0.06025,-0.01021,0.01018,-0.06025,-1.872571222
XMTQQYYKAHVGBJ-XWKXFZRBNA-N,1-chlorooctane,233.097,243.534,-26710.300000000003,-1725.6084800000026,239.641,0.00303767,10.035,10.057,-0.63532,-0.25273,-0.63532,0.67956,-1.60961,-1.937371919
NIHNNTQXNPWCJQ-UHFFFAOYNA-N,benzene,166.222,200.685,-21505.44,-103.3090000000011,239.641,0.00303767,9.256,9.236,0.0,-1.59493,-0.32198,0.17725,0.0,0.113523147
XNGIFLGASWRNHJ-FLKJISBTNA-N,cyclohexanone,166.133,180.477,-23549.364,-860.8571428571449,239.641,0.00303767,8.596,11.225,-2.11769,0.66148,-0.5833,0.65705,-2.11769,-0.72649152
PEQHIRFAKIASBK-UHFFFAOYNA-N,methanol,320.433,334.609,-32267.246,-717.9057999999895,239.641,0.00303767,10.442,12.208,0.0,-3.1956,-0.18879,0.16304,0.0,-3.760000207
NIHNNTQXNPWCJQ-UHFFFAOYNA-N,heptane,166.222,200.685,-21554.0,-151.86899999999878,239.641,0.00303767,10.632,12.893,0.0,-1.5819,-0.32115,0.17592,0.0,-0.626733358
ROORDVPLFPIABK-UHFFFAOYNA-N,2-butanol,214.22,245.068,-24928.728,271.169714285712,239.641,0.00303767,9.297,13.025,-1.33067,-0.41885,-0.55845,0.76423,-1.33067,-0.882979212
HEWGVSGLMQJYHJ-UHFFFAOYNA-N,dmf,288.048,229.267,-26290.99,311.15766666666605,241.069,4.61987,7.419,11.179,-0.98524,0.7626799999999999,-0.49274,0.61685,-1.66324,-0.529373293
FOCAUTSVDIKZOP-JLSKMEETNA-N,acetonitrile,94.4975,111.476,-18560.768,-1927.9123333333337,241.069,4.61987,12.153,12.61,-1.06029,0.32843,-0.58718,0.65785,-1.14745,1.095034681
NRPFNQUDKRYCNX-KZFATGLANA-N,dmso,166.176,200.635,-24348.338000000003,-552.5143333333399,241.069,4.61987,8.305,10.107,-1.49627,-0.45772,-0.60205,0.67426,-1.49627,0.653525297
BOCJQSFSGAZAPQ-UHFFFAOYNA-N,2-methyl-2-propanol,242.661,236.9,-25943.687999999995,-772.2186530612198,241.069,4.61987,8.372,13.167,-1.07199,-0.1276,-0.53995,0.56797,-1.13786,-2.307934015
WJFKNYWRSNBZNX-UHFFFAOYNA-N,1-pentanol,199.27,217.26,-25162.582,-1915.9619999999995,241.069,4.61987,9.865,10.886,0.0,-1.22191,-0.39873,0.29934,-0.434,-0.911937787
HEFNNWSXXWATRW-YHMJCDSINA-N,chlorobenzene,206.284,254.966,-28996.986,-1001.3340645161334,241.069,4.61987,9.712,9.291,-1.0847,-1.95328,-0.5878,0.63527,-1.0847,0.28780173
JGMBHJNMQVKDMW-UHFFFAOYNA-N,thf,291.176,286.992,-29530.442000000003,-1680.445428571431,241.069,4.61987,8.739999999999998,12.02,-0.60434,-1.35217,-0.60434,0.61408,-0.75806,0.106149206
RJKFOVLPORLFTN-LEKSSAKUNA-N,water,314.467,328.398,-33544.382,-1215.6369999999988,411.321,7.802829999999999,11.416,14.163,-1.27888,-3.54222,-0.65871,0.64938,-1.27888,-4.360249982
CPJSUEIXXCENMM-WXRBYKJCNA-N,1-propanol,179.218,222.914,-26641.854,-587.7595714285708,224.342,3.3683400000000003,10.092,11.535,-1.07971,-0.94489,-0.65494,0.66259,-1.51613,-0.57848435
ZNNLBTZKUZBEKO-PLJOYGPPNA-N,1-butanol,494.004,497.146,-43707.384000000005,-1808.25,224.342,3.3683400000000003,9.44,12.325,-3.65808,-1.88189,-0.97162,2.57127,-3.00601,-4.063310503
WBYWAXJHAXSJNI-KZFATGLANA-N,1-butanol,148.161,186.875,-22853.824,-594.2883750000037,224.342,3.3683400000000003,9.331,12.639,-1.1037,-0.45067,-0.61731,0.68092,-1.1037,-0.149479326
PEQHIRFAKIASBK-UHFFFAOYNA-N,n-methylformamide,320.433,334.47,-34477.972,-2928.631799999996,401.89,0.00126355,9.92,10.442,0.0,-3.17757,-0.18766,0.16247,0.0,-3.650000221
WNLRTRBMVRJNCN-AUDIXQRPNA-N,"1,4-dioxane",146.143,184.741,-23677.304000000004,-670.8265263157919,177.483,2.237,9.899,13.166,-2.10777,0.03979,-0.56531,0.64221,-2.10777,-0.332526933
YGSDEFSMJLZEOE-BGGKNDAXNA-N,2-methyl-1-propanol,138.123,157.143,-21713.34,-566.5274000000027,151.634,1.475,9.285,12.659,-1.58775,0.1451299999999999,-0.59429,0.69285,-1.58775,0.183839037
DMIYKWPEFRFTPY-UHFFFAOYNA-N,methanol,175.014,175.071,-22388.464,-1371.447,151.634,1.475,9.216,12.699,-0.55061,-0.0098699999999999,-0.55061,0.46877,-0.6996100000000001,-20.0
WPYMKLBDIGXBTP-FZOZFQFYNA-N,chloroform,122.123,151.267,-20616.198000000004,-885.1986500000057,144.24200000000002,3.1801600000000003,10.508,9.473,-1.07402,-0.1117199999999999,-0.58973,0.65473,-1.07402,0.172886537
BSYNRYMUTXBXSQ-WXRBYKJCNA-N,peg400,180.16,198.597,-25187.26,-1012.9781500000064,144.24200000000002,3.1801600000000003,8.616,11.401,-2.06656,0.3242799999999999,-0.60386,0.71156,-2.06656,-0.132
CKAPSXZOOQJIBF-UHFFFAOYNA-N,decane,284.784,220.81,-23575.582,1948.41585714286,239.638,0.00108618,9.301,14.136,0.0,0.02405,-0.00408,0.00406,-0.02404,-1.629301907
CMWTZPSULFXXJA-YAQRNVERNA-N,1-octanol,230.263,260.814,-28044.038,-414.82224999999016,239.638,0.00108618,9.414,11.59,-1.47711,-1.09821,-0.6123,0.63874,-1.47711,-0.890000001
SWJPEBQEEAHIGZ-UHFFFAOYNA-N,2-butanol,235.906,168.859,-20969.56,-1950.127176470589,166.776,0.00307161,9.763,12.756,0.0,-0.55092,-0.13937,0.18524,-0.18967,-0.415754752
PJANXHGTPQOBST-VAWYXSNFNA-N,"1,4-dioxane",180.249,233.288,-24139.884,-706.517777777779,166.776,0.00307161,9.073,10.524,0.0,-1.83817,-0.18479,0.15587,0.0,-0.152838621
SATCULPHIDQDRE-UHFFFAOYNA-N,dichloromethane,150.134,168.119,-21846.028,-1353.1445454545465,164.596,4.45957,9.797,9.353,-1.27803,0.25929,-0.55709,0.44578,-1.27803,0.880241776
YRHRIQCWCFGUEQ-UHFFFAOYNA-N,1-butanol,212.266,221.762,-24792.194,-1599.1031785714258,164.596,4.45957,9.029,11.932,-0.59206,-0.79549,-0.59206,0.59168,-0.60418,-1.907620716
BBEAQIROQSPTKN-UHFFFAOYNA-N,cyclohexane,202.255,222.477,-22095.438,12.670985074626516,242.506,0.000438842,9.237,12.286,0.0,-1.57043,-0.17523,0.15845,0.0,-1.001958736
AYIRNRDRBQJXIF-SVGYMEAUNA-N,water,358.211,320.649,-36563.942,-2369.5279999999984,374.675,8.368780000000001,10.968,14.088,-3.20443,-1.48397,-1.01333,2.50672,-1.48423,-2.516044095
AZQWKYJCGOJGHM-UHFFFAOYNA-N,"2,2,4-trimethylpentane",108.096,134.91,-19232.982,-389.1280000000006,374.675,8.368780000000001,8.516,14.91,-0.91622,0.1387799999999999,-0.45811,0.52165,-0.91622,-1.382625959
NIHNNTQXNPWCJQ-UHFFFAOYNA-N,toluene,166.222,200.685,-21505.636,-103.50499999999738,374.675,8.368780000000001,8.872,9.299,0.0,-1.59766,-0.32215,0.17753,0.0,0.048329815
PZPZDEIASIKHPY-UHFFFAOYNA-N,dichloromethane,242.234,256.161,-27763.578,-1041.4533333333384,374.675,8.368780000000001,9.456,9.747,-1.6303899999999998,-0.72773,-0.57993,0.87664,-1.2245,-0.273963182
VPHHJAOJUJHJKD-KZFATGLANA-N,2-butanol,191.013,187.61,-23554.924,-1907.2509696969648,374.675,8.368780000000001,9.037,13.037,-1.0693,0.23914,-0.59401,0.66605,-1.18122,-0.690105777
RWCCWEUUXYIKHB-UHFFFAOYNA-N,water,182.221,219.551,-23772.112,-374.4720000000016,374.675,8.368780000000001,10.751,14.018,-0.59725,-1.0601,-0.59725,0.59317,-0.59725,-3.119999757
VYWYYJYRVSBHJQ-KZFATGLANA-N,3-methoxy-1-butanol,212.118,207.67,-25255.436,-1349.6752592592566,374.675,8.368780000000001,7.515,13.923,-2.99362,0.27095,-0.57,0.87083,-1.25265,0.106303914
GVEPBJHOBDJJJI-UHFFFAOYNA-N,1-heptanol,202.255,227.244,-23054.746,-490.8262040816262,374.675,8.368780000000001,8.958,11.563,0.0,-1.64016,-0.15623,0.16694,0.0,-0.751536282
IYYZUPMFVPLQIF-UHFFFAOYNA-N,1-butanol,184.255,204.586,-22066.856,-280.6956666666665,374.675,8.368780000000001,9.552,11.634,0.0,-1.37096,-0.15079,0.17045,0.034,-0.848169943
BBEAQIROQSPTKN-UHFFFAOYNA-N,1-octanol,202.255,222.465,-22107.27,0.838985074627999,374.675,8.368780000000001,8.926,11.057,0.0,-1.65359,-0.17829,0.16691,0.0,-0.909770318
RGGYLRDGJAJICY-ZYMSVLFVNA-N,benzene,504.627,477.158,-44267.45599999999,-1075.5694999999978,374.675,8.368780000000001,8.573,9.17,-1.34862,-2.98452,-0.5772,0.61818,-2.23248,-1.522878745
HYZJCKYKOHLVJF-FZOZFQFYNA-N,2-butanol,118.138,147.573,-19904.922,-431.3908888888873,374.675,8.368780000000001,9.894,12.261,0.0,-0.53575,-0.43154,0.30877,-0.6499999999999999,0.076640444
BOCJQSFSGAZAPQ-UHFFFAOYNA-N,2-ethyl-1-hexanol,242.661,236.9,-25920.216,-748.7466530612255,374.675,8.368780000000001,8.214,12.919,-1.0579299999999998,-0.1373,-0.53355,0.56392,-1.1211099999999998,-2.116949732
BOCJQSFSGAZAPQ-UHFFFAOYNA-N,2-butanol,242.661,236.9,-25955.474,-784.0046530612271,374.675,8.368780000000001,8.282,13.076,-1.07808,-0.1233599999999999,-0.54271,0.56971,-1.14513,-2.258645489
AZQWKYJCGOJGHM-UHFFFAOYNA-N,water,108.096,134.91,-18983.49,-139.6359999999986,374.675,8.368780000000001,9.499,14.81,-1.05036,0.2314,-0.52519,0.55664,-1.05036,-0.775000001
ZQBAKBUEJOMQEX-UHFFFAOYNA-N,water,214.22,239.832,-26239.606,-238.64374999999927,374.675,8.368780000000001,10.775,13.692,-1.49539,-0.4508099999999999,-0.57071,0.70974,-1.49539,-3.152450914
UFWIBTONFRDIAS-UHFFFAOYNA-N,thf,128.173,165.632,-19445.754,151.02903030303423,374.675,8.368780000000001,8.745999999999999,11.163,0.0,-1.286,-0.1764,0.16294,0.0,0.567849488
SJEBAWHUJDUKQK-UHFFFAOYNA-N,methanol,236.27,258.581,-27277.168000000005,-785.4597600000052,374.675,8.368780000000001,8.519,12.895,-1.11826,-0.92315,-0.56388,0.56977,-1.11826,-1.494000003
AQIXAKUUQRKLND-UHFFFAOYSA-N,peg400,252.337,288.661,-29719.498000000003,-1314.9630000000034,374.675,8.368780000000001,9.949,10.203,0.0,-0.7823800000000001,-0.51339,0.4386,-2.39048,-0.800000001
LDHQCZJRKDOVOX-GSMIJIFMNA-N,benzene,86.0902,125.178,-19527.952,-475.5410000000011,374.675,8.368780000000001,9.269,11.257,-1.07102,-0.17447,-0.5793,0.6687,-1.07102,0.648360011
RJKGJBPXVHTNJL-UHFFFAOYNA-N,2-methyl-1-pentanol,173.171,192.125,-22475.416,-324.90087804878203,374.675,8.368780000000001,8.562,12.227,-1.00914,-1.06449,-0.506,0.856,-0.15314,-0.535359929
WNLRTRBMVRJNCN-AUDIXQRPNA-N,ethanol,146.143,181.998,-23836.024,-829.5465263157857,374.675,8.368780000000001,10.779,14.43,-2.22897,0.08596,-0.61648,0.67042,-2.22897,-0.186782005
WPYMKLBDIGXBTP-FZOZFQFYNA-N,cyclohexane,122.123,151.225,-20454.234,-723.2346500000021,144.06900000000002,2.85548,9.8,14.316,-1.04327,-0.1145299999999999,-0.55998,0.63942,-1.04327,-1.002445771
ONUFSRWQCKNVSL-UHFFFAOYNA-N,methylcyclohexane,334.116,260.826,-29330.322,89.01179999999295,144.06900000000002,2.85548,9.111,15.124,0.0,0.75979,-0.09544,0.16354,-0.75981,-0.027208798
UJOBWOGCFQCDNV-UHFFFAOYNA-N,1-chlorooctane,167.21,198.372,-21880.384,-219.63360000000105,144.06900000000002,2.85548,10.167,9.427,0.0,-1.27042,-0.29201,0.28884,-0.29201,-1.850013265
LDZYRENCLPUXAX-UHFFFAOYSA-N,toluene,132.165,167.349,-21034.466,-1296.424666666666,162.016,4.46746,9.012,9.546,0.0,-0.7934599999999999,-0.49367,0.28822,-0.70326,-2.096910013
PJANXHGTPQOBST-VAWYXSNFNA-N,2-butanol,180.249,233.288,-24264.31,-830.9437777777785,235.39,0.00804462,9.656,11.896999999999998,0.0,-1.92388,-0.19067,0.16303,0.0,-1.384266676
XMTQQYYKAHVGBJ-XWKXFZRBNA-N,2-methyl-1-propanol,233.097,243.58,-26545.802000000003,-1561.110480000003,235.39,0.00804462,9.623,12.057,-0.6658,-0.2642699999999999,-0.6658,0.68244,-1.63545,-1.040204807
KZTYYGOKRVBIMI-UHFFFAOYNA-N,1-hexanol,218.27,232.228,-27032.874,-825.0900833333326,235.39,0.00804462,9.863,12.906,-1.99117,-2.10012,-0.99566,2.45576,0.4645900000000001,-1.375153163
QGJZLNKBHJESQX-WRDJYESVNA-N,acetone,456.707,430.688,-41933.446,-971.6391666666676,604.635,1.45977,10.586,10.339,-1.72533,-5.80185,-0.643,0.61947,-1.72533,-2.100082366
UFWIBTONFRDIAS-UHFFFAOYNA-N,chloroform,128.173,165.632,-19423.868,172.91503030303284,604.635,1.45977,10.587,8.085,0.0,-1.26401,-0.17365,0.16008,0.0,0.545606898
UMGDCJDMYOKAJW-UBUOBULFNA-N,methanol,76.116,105.161,-17265.753999999997,-87.48359999999593,89.5934,7.67176,10.433,12.502,0.0,0.5084,-0.81557,0.5084,-1.70673,0.080724465
BBEAQIROQSPTKN-UHFFFAOYNA-N,acetone,202.255,222.477,-22119.08,-10.97101492537331,89.5934,7.67176,8.753,8.881,0.0,-1.66704,-0.17863,0.16825,0.0,-0.330683119
WURBFLDFSFBTLW-UHFFFAOYNA-N,octane,210.232,239.927,-26611.254,-1600.608204081629,89.5934,7.67176,9.407,14.098,-0.94691,-0.68341,-0.47346,0.42647,-0.94691,-1.350000002
IWYDHOAUDWTVEP-KZFATGLANA-N,1-hexanol,152.149,178.313,-22807.03,-673.4413333333323,178.777,3.12899,10.048,12.845,-1.58816,-0.12791,-0.58333,0.57721,-1.58816,-0.7504592138852458
BBEAQIROQSPTKN-UHFFFAOYNA-N,1-pentanol,202.255,222.477,-22117.892000000003,-9.783014925375028,178.777,3.12899,8.862,11.056,0.0,-1.662,-0.17849,0.16774,0.0,-1.071604148
WPYMKLBDIGXBTP-FZOZFQFYNA-N,acetonitrile,122.123,151.267,-20973.344000000005,-1242.3446500000064,178.777,3.12899,11.909,11.484,-1.10022,-0.1088899999999999,-0.61683,0.66737,-1.10022,-0.027070428
KRKNYBCHXYNGOX-CUNNJMNPNA-N,chloroform,192.125,189.611,-25582.91,-427.73781818181305,202.253,2.23531,10.785,11.009,-3.63879,1.26349,-0.57853,0.67263,-3.63879,-0.450624140974026
DFXQXFGFOLXAPO-KZFATGLANA-N,water,201.566,197.358,-24649.288,-1382.406647058826,201.391,3.84759,10.111,14.565,-2.02704,0.22085,-0.59125,0.8667,-1.1894,-2.642485033
GECHUMIMRBOMGK-YHMJCDSINA-N,ethanol,249.287,252.718,-27526.864,-765.5144,201.391,3.84759,10.234,11.968,-1.98863,-1.11237,-0.99924,2.57149,-1.1465,-2.139841739
CKAPSXZOOQJIBF-UHFFFAOYNA-N,methanol,284.784,220.81,-23581.926,1942.0718571428588,201.391,3.84759,9.078,12.73,0.0,0.06742,-0.0114,0.01151,-0.06741,-2.653647026
DAUAQNGYDSHRET-KZFATGLANA-N,3-methyl-1-butanol,182.176,208.474,-27624.162,-3274.7458461538445,201.391,3.84759,9.219,12.072,-1.83723,-0.0613400000000001,-0.61008,0.66826,-1.83723,-1.293000001
WPYMKLBDIGXBTP-FZOZFQFYNA-N,toluene,122.123,151.267,-20483.676,-752.6766500000012,201.391,3.84759,8.478,10.614999999999998,-1.05124,-0.11386,-0.56749,0.64343,-1.05124,-0.170984057