InChIkey,Solvent,MW,SASA,G_sol,DeltaG_sol,Volume,sol_dip,LsoluHsolv,LsolvHsolu,O_charges,C_charges,Most_neg,Most_pos,Het_charges,LogS
BLUAFEHZUWYNDE-NNWCWBAJNA-N,methanol,282.336,273.916,-29993.006,-1101.6923636363608,236.332,2.71882,9.382,13.037,-2.05221,-1.64574,-0.57815,0.68698,-2.05221,-1.474414677
WQLVFSAGQJTQCK-UHFFFAOYNA-N,methanol,414.627,410.353,-38358.204000000005,-1271.616000000009,236.332,2.71882,11.729,12.071,-1.67183,-4.67419,-0.62787,0.55277,-1.67183,-2.207484414
LDHQCZJRKDOVOX-GSMIJIFMNA-N,acetonitrile,86.0902,125.316,-19298.896,-246.48500000000053,108.875,4.89302,12.323,12.192,-1.13212,-0.1610099999999999,-0.64358,0.69845,-1.13212,0.555094449
WPYMKLBDIGXBTP-FZOZFQFYNA-N,dimethylacetamide,122.123,151.225,-20945.756,-1214.756650000003,144.06900000000002,3.50096,9.371,11.312,-1.10025,-0.1088599999999999,-0.61686,0.66737,-1.10025,0.723783937
VPHHJAOJUJHJKD-KZFATGLANA-N,1-pentanol,191.013,187.66,-24188.896,-2541.222969696966,189.242,0.298228,9.012,12.838,-1.06892,0.23925,-0.5929,0.66607,-1.18109,-0.698359228
GRWAIJBHBCCLGS-FZOZFQFYNA-N,2-propanol,128.09,145.107,-21086.788,-1005.8665,135.797,8.41396,9.751,14.800999999999998,-1.03135,0.35012,-0.56363,0.64971,-1.47655,-0.187806124
DFXQXFGFOLXAPO-KZFATGLANA-N,1-octanol,201.566,197.343,-24427.256,-1160.374647058827,135.797,8.41396,8.721,13.453,-2.00052,0.2080599999999999,-0.58079,0.86089,-1.16636,-0.638272164
VPHHJAOJUJHJKD-KZFATGLANA-N,2-propoxyethanol,191.013,187.61,-23482.574,-1834.900969696966,189.143,3.45947,8.559999999999999,11.829,-1.06324,0.23441,-0.58717,0.66269,-1.17214,-0.39209664
BBEAQIROQSPTKN-UHFFFAOYNA-N,chlorocyclohexane,202.255,222.477,-22116.052,-7.943014925371244,189.143,3.45947,8.895000000000001,9.422,0.0,-1.64188,-0.17788,0.16571,0.0,-1.178814117
JZFDKGFWNSQAHU-GPQMBLKYNA-N,2-propanol,254.285,281.587,-29710.286,-303.6027999999933,189.143,3.45947,9.38,12.964,-1.64073,-0.89314,-0.5901,0.65962,-1.64073,-0.817650973
LDCRTTXIJACKKU-ONEGZZNKNA-N,water,144.127,180.381,-23747.846,-298.09333333334143,189.143,3.45947,10.217,15.493,-1.92751,0.4714799999999999,-0.58621,0.65243,-1.92751,-2.301029996
JWAZRIHNYRIHIV-UHFFFAOYNA-N,octane,144.173,175.366,-21156.230000000003,-233.3744615384676,176.437,1.16169,10.130999999999998,12.791,-0.47433,-0.99459,-0.47433,0.35478,-0.47433,-1.783034017
JJVNINGBHGBWJH-UHFFFAOYNA-N,ethanol,152.149,178.271,-23272.636,-1367.0176000000029,176.437,1.16169,9.415,12.046,-1.43976,-0.0798499999999999,-0.57604,0.47138,-1.43976,0.482873584
YGSDEFSMJLZEOE-BGGKNDAXNA-N,acetone,138.123,157.307,-21725.792,-578.9794000000038,176.437,1.16169,9.251,10.351,-1.58834,0.15164,-0.62874,0.69493,-1.58834,0.324157006
RJKGJBPXVHTNJL-UHFFFAOYNA-N,cyclooctane,173.171,192.048,-22409.054000000004,-258.5388780487847,197.675,5.99595,8.818000000000001,13.803,-0.95376,-1.03831,-0.47834,0.83014,-0.12362,-0.594258345
GVIJJXMXTUZIOD-UHFFFAOYNA-N,"2,2,4-trimethylpentane",216.315,223.654,-23467.88,-469.24231578947,197.675,5.99595,10.245,12.659,0.0,-1.27649,-0.13925,0.16806,-0.03156,-1.770660046
BBEAQIROQSPTKN-UHFFFAOYNA-N,dodecane,202.255,222.477,-22095.04,13.0689850746312,197.675,5.99595,9.428,12.224,0.0,-1.57041,-0.17523,0.15845,0.0,-0.964507572
WURBVZBTWMNKQT-UHFFFAOYNA-N,toluene,293.752,296.253,-30796.366,-1656.0537142857102,348.111,5.58141,8.344,10.368,-0.84777,-1.27682,-0.51976,0.43604,-1.57543,0.087073651
JBKVHLHDHHXQEQ-QDQILVOLNA-N,1-propanol,113.159,149.441,-20469.238,-944.1248000000014,348.111,5.58141,11.211,12.863,-0.71601,-0.65773,-0.71601,0.61901,-1.1539700000000002,0.525623017
OTLNPYWUJOZPPA-BGGKNDAXNA-N,1-hexanol,167.121,179.686,-23277.202,-1401.643729729727,348.111,5.58141,8.243,13.553999999999998,-2.04887,0.0684299999999999,-0.57911,0.84235,-1.20652,-1.096910013
SQNZJJAZBFDUTD-UHFFFAOYNA-N,2-methyl-2-propanol,134.221,191.326,-22546.270000000004,-77.61941935483992,348.111,5.58141,10.76,11.97,0.0,-2.34541,-0.49049,0.17075,0.0,-0.250183999
IYYZUPMFVPLQIF-UHFFFAOYNA-N,ethanol,184.255,204.586,-22095.210000000003,-309.0496666666695,348.111,5.58141,9.742,11.647,0.0,-1.37291,-0.15058,0.17082,0.03221,-0.889845155
HEFNNWSXXWATRW-YHMJCDSINA-N,2-butanol,206.284,257.387,-28524.472,-528.8200645161342,279.891,2.54953,10.447,12.426000000000002,-1.10106,-1.97684,-0.60499,0.64368,-1.10106,0.250420002
CWRYPZZKDGJXCA-UHFFFAOYNA-N,1-decanol,154.211,186.967,-20971.254,390.6748000000007,279.891,2.54953,9.763,11.474,0.0,-1.63466,-0.29826,0.16917,0.0,-0.449649328
PVNIIMVLHYAWGP-FZOZFQFYNA-N,acetone,123.111,147.253,-20768.202,-528.5436363636363,279.891,2.54953,9.083,11.381,-1.08396,0.37146,-0.60313,0.68804,-1.47981,-1.738051654
HCUARRIEZVDMPT-WXRBYKJCNA-N,methanol,161.16,184.556,-22696.368,-456.5319999999992,279.891,2.54953,9.412,11.708,-1.08154,-0.2709799999999999,-0.60842,0.68018,-1.24437,0.265286187
ZIMGGGWCDYVHOY-UHFFFAOYNA-N,ethanol,209.25,235.75,-25873.544,-571.2177142857145,279.891,2.54953,9.734,12.025,-0.32654,-0.2312299999999999,-0.67129,0.50063,-2.62127,-0.994209513
VLYWMPOKSSWJAL-YAQRNVERNA-N,1-octanol,280.301,280.064,-29465.49200000001,-187.20741666667163,279.891,2.54953,9.229,11.937,-2.30221,-0.95435,-0.98644,2.56802,-1.48588,-2.687661959
PJANXHGTPQOBST-VAWYXSNFNA-N,2-methyl-1-propanol,180.249,233.489,-24295.308,-861.9417777777744,235.571,0.00526668,9.544,11.827,0.0,-1.92491,-0.19078,0.16313,0.0,-1.448213444
PZPZDEIASIKHPY-UHFFFAOYNA-N,"1,4-dioxane",242.234,256.093,-27108.978000000003,-386.85333333333983,235.571,0.00526668,8.312000000000001,11.404,-1.5449,-0.7400300000000001,-0.54475,0.85715,-1.15655,-0.342447131
GVIJJXMXTUZIOD-UHFFFAOYNA-N,1-butanol,216.315,223.654,-23791.246,-792.6083157894718,239.69,2.13536,9.652,11.631,0.0,-1.2936,-0.14247,0.17694,-0.0932699999999999,-1.608904534
JCLYNMPVVXQIJI-UHFFFAOYNA-N,chloroform,258.233,270.131,-29121.306000000008,-1082.788666666671,239.69,2.13536,9.418,8.688,-1.87189,-0.7079500000000001,-0.55096,0.83648,-1.21769,0.13893394
SJEBAWHUJDUKQK-UHFFFAOYNA-N,1-pentanol,236.27,258.497,-27214.328,-722.6197600000014,278.059,0.940692,8.374,12.913,-1.10713,-0.92719,-0.55821,0.56686,-1.10713,-1.258999997
PBZQTKRWYXTXIS-YQFGMCEENA-N,ethanol,464.606,447.109,-44093.17,-1728.736666666657,589.744,9.35008,9.552,11.574,-1.2728700000000002,-3.34538,-0.65129,0.62584,-2.15196,-1.397940009
AZQWKYJCGOJGHM-UHFFFAOYNA-N,cyclooctane,108.096,134.91,-19276.264,-432.4099999999962,589.744,9.35008,8.162,15.154,-0.92111,0.14208,-0.46056,0.52296,-0.92111,-1.225810382
WBYWAXJHAXSJNI-KZFATGLANA-N,thf,148.161,186.247,-22780.158000000003,-520.6223750000063,589.744,9.35008,8.54,12.115,-1.10573,-0.44732,-0.62134,0.68163,-1.10573,0.367169489
TYFQFVWCELRYAO-FLKJISBTNA-N,thf,174.196,213.22,-26422.084000000003,-396.5119999999988,221.588,0.778925,9.834,13.723,-2.22594,-0.4260699999999998,-0.61316,0.66839,-2.22594,-0.184576848
FFGPTBGBLSHEPO-ZHLVXTBQNA-N,acetone,236.273,250.07,-26627.06,-771.9049999999988,277.411,5.42968,9.537,9.54,-0.67431,-0.6717,-0.67431,0.69403,-1.61205,-1.192411172
SEEPANYCNGTZFQ-YHMJCDSINA-N,1-propanol,250.275,248.988,-26973.19,647.7516470588234,267.711,9.44637,9.668,11.91,-1.97247,-0.5497,-0.98916,2.56238,-1.57528,-2.784843784
BBEAQIROQSPTKN-UHFFFAOYNA-N,thf,202.255,222.477,-22114.816000000003,-6.7070149253740965,267.711,9.44637,8.068999999999999,10.598,0.0,-1.65731,-0.17835,0.16727,0.0,-0.823330067
KZTYYGOKRVBIMI-UHFFFAOYNA-N,cyclopentanol,218.27,232.118,-25884.858,322.92591666666704,267.711,9.44637,9.879,13.068,-1.99318,-2.10063,-0.99668,2.45655,0.4633699999999999,-0.962569048
ALYNCZNDIQEVRV-BGGKNDAXNA-N,peg400,137.138,165.992,-21727.02,-826.0842758620638,159.658,5.360930000000001,9.12,10.312,-1.11627,0.02397,-0.62435,0.68244,-1.61343,0.304
ZUOUZKKEUPVFJK-UHFFFAOYNA-N,tert-butylcyclohexane,154.211,198.095,-21637.880000000005,-819.250814814819,159.658,5.360930000000001,10.243,13.204,0.0,-1.52948,-0.17206,0.15676,0.0,0.011473663
ZUOUZKKEUPVFJK-UHFFFAOYNA-N,methylcyclohexane,154.211,198.05,-21527.094,-708.4648148148153,201.225,0.000841732,10.495,13.461,0.0,-1.52857,-0.17188,0.15649,0.0,0.143718922
BGNGWHSBYQYVRX-UHFFFAOYNA-N,acetonitrile,149.192,191.42,-22890.932,-1224.8242857142868,191.147,8.27047,12.186,9.811,-0.61492,-0.91815,-0.61492,0.47047,-0.87307,0.414973348
CKAPSXZOOQJIBF-UHFFFAOYNA-N,2-propanol,284.784,220.81,-23579.85,1944.14785714286,191.147,8.27047,9.116,12.955000000000002,0.0,0.06497,-0.01099,0.01115,-0.06498,-2.412289035
FJKROLUGYXJWQN-BGGKNDAXNA-N,dimethylacetamide,138.123,160.982,-22195.388000000003,-1357.4947142857127,191.147,8.27047,9.424,10.983,-1.59343,0.13462,-0.62419,0.68567,-1.59343,0.375388427
ISAOCJYIOMOJEB-UHFFFAOYNA-N,1-butanol,212.248,240.999,-26594.702,-922.9293157894716,262.206,5.91607,9.242,12.797999999999998,-1.11395,-1.05655,-0.56607,0.50343,-1.11395,-1.546295513
JCLYNMPVVXQIJI-UHFFFAOYNA-N,1-octanol,258.233,271.294,-29226.20600000001,-1187.6886666666687,262.206,5.91607,8.482999999999999,12.212,-1.90856,-0.7061999999999999,-0.56559,0.84626,-1.23689,0.048830087
TYFQFVWCELRYAO-FLKJISBTNA-N,methanol,174.196,223.274,-26248.496,-222.92399999999543,262.206,5.91607,10.687,14.205,-2.22828,-0.44891,-0.62638,0.6711,-2.22828,-0.155228644
OTLNPYWUJOZPPA-BGGKNDAXNA-N,2-propoxyethanol,167.121,179.686,-23180.826,-1305.2677297297269,262.206,5.91607,7.795,12.492,-2.03961,0.0642599999999999,-0.5747,0.84009,-1.19952,-0.667454269
POULHZVOKOAJMA-NDKGDYFDNA-N,3-methyl-1-butanol,200.32,273.89,-29633.688,-651.9880000000048,262.206,5.91607,10.515,13.819,-1.11661,-2.48222,-0.6159,0.66368,-1.11661,0.335170553
CKAPSXZOOQJIBF-UHFFFAOYNA-N,1-octanol,284.784,220.81,-23571.726,1952.2718571428595,262.206,5.91607,8.950999999999999,12.774,0.0,0.0593,-0.01005,0.00995,-0.05932,-1.834445173
ZUOUZKKEUPVFJK-UHFFFAOYNA-N,3-methoxy-1-butanol,154.211,198.05,-21594.196000000004,-775.5668148148179,262.206,5.91607,9.466,11.669,0.0,-1.59018,-0.17845,0.16194,0.0,0.082703367
WNLRTRBMVRJNCN-AUDIXQRPNA-N,chloroform,146.143,182.769,-23827.012,-820.5345263157906,262.206,5.91607,11.538,10.828,-2.16852,0.06615,-0.59418,0.65468,-2.16852,-1.574215642
NUVBSKCKDOMJSU-UHFFFAOYNA-N,1-butanol,166.176,200.35,-24861.814,-486.4829090909116,198.671,1.56744,9.589,12.66,-1.52605,-0.3843999999999999,-0.61419,0.69064,-1.52605,0.246335977
KRKNYBCHXYNGOX-CUNNJMNPNA-N,"1,4-dioxane",192.125,190.307,-26432.972,-1277.7998181818148,198.671,1.56744,9.161,13.206,-3.5998,1.2638,-0.56069,0.67552,-3.5998,0.205048903
WPYMKLBDIGXBTP-FZOZFQFYNA-N,"1,4-dioxane",122.123,151.225,-20469.302000000003,-738.3026500000051,144.06900000000002,2.8971599999999995,8.882,11.893,-1.04753,-0.11417,-0.56398,0.64157,-1.04753,0.489677292
JTEGQNOMFQHVDC-IRNSGEEPNA-N,acetonitrile,229.253,228.759,-26710.704,-950.0983999999916,144.06900000000002,2.8971599999999995,12.113,10.898,-1.6648,0.8732500000000001,-0.66597,0.71865,-3.30244,-2.209906859
WURBFLDFSFBTLW-UHFFFAOYNA-N,trifluoroethanol,210.232,239.927,-25774.266000000003,-763.6202040816352,247.864,0.00277365,9.659,11.106,-1.01614,-0.6724,-0.50808,0.45075,-1.01614,-0.352029585
RXKNNAKAVAHBNK-UHFFFAOYNA-N,hexadecane,140.098,154.652,-20083.778,1444.4256842105317,247.864,0.00277365,8.662,14.205,-1.4860600000000002,-0.8120499999999999,-0.53239,0.84901,-0.0247,-3.552841969
FJKROLUGYXJWQN-BGGKNDAXNA-N,methanol,138.123,160.929,-21963.514,-1125.6207142857093,155.212,2.5726700000000005,9.68,12.611,-1.5927099999999998,0.1352499999999999,-0.6244,0.68558,-1.5927099999999998,0.459020656
WQLVFSAGQJTQCK-UHFFFAOYNA-N,2-propanol,414.627,412.436,-38113.316000000006,-1026.72800000001,535.343,4.22282,11.856,12.217,-1.73156,-4.65934,-0.62828,0.54108,-1.73156,-1.860944146
DNXHEGUUPJUMQT-CBZIJGRNNA-N,water,270.371,286.641,-29107.322,-282.9070000000065,535.343,4.22282,11.768,13.003,-1.12257,-2.57005,-0.60997,0.56366,-1.12257,-4.774999851
VYWYYJYRVSBHJQ-KZFATGLANA-N,3-methyl-1-butanol,212.118,207.701,-25349.43,-1443.669259259259,208.414,4.38379,8.008,14.518,-3.01012,0.28029,-0.57504,0.87368,-1.26353,-0.569405182
FZERHIULMFGESH-BGGKNDAXNA-N,2-propanol,135.165,175.106,-22199.328,-92.6318333333329,169.558,5.39014,10.328,12.185,-0.64607,-0.68017,-0.64607,0.6686,-1.0989,0.160723364
GJCOSYZMQJWQCA-UHFFFAOYNA-N,cyclohexane,182.221,210.426,-22607.182,-598.8015121951248,169.558,5.39014,10.48,12.87,-0.34796,-1.27247,-0.34796,0.26181,-0.34796,-0.408935393
MWPLVEDNUUSJAV-UHFFFAOYNA-N,octane,178.233,211.323,-21521.676,717.8424571428586,169.558,5.39014,9.628,12.204999999999998,0.0,-1.55634,-0.19284,0.16168,0.0,-1.958607315
DKYWVDODHFEZIM-GPQMBLKYNA-N,1-pentanol,254.285,284.24,-29710.044,-880.1322222222116,169.558,5.39014,9.289,12.831,-1.67417,-0.89997,-0.60444,0.64206,-1.67417,-0.124115767
BXRFQSNOROATLV-UHFFFAOYNA-N,1-butanol,151.121,171.355,-21968.824,617.7189999999973,169.558,5.39014,8.274,13.463,-1.54551,-0.2017899999999999,-0.53571,0.84421,-0.7012999999999999,-20.0
QYSPLQLAKJAUJT-HCKMINDGNA-N,water,331.345,312.138,-31424.6,-690.4539999999979,350.362,8.75423,10.347,13.427,-2.99365,-0.72736,-0.97629,2.50647,-1.94133,-4.159999982
ASWVTGNCAZCNNR-WYUMXYHSNA-N,peg400,278.328,284.558,-29409.048000000003,-268.67350000000806,350.362,8.75423,9.207,10.231,-1.96821,-1.20435,-0.98649,2.55958,-1.7199,-1.290000003
HVYWMOMLDIMFJA-DPAQBDIFNA-N,1-hexanol,386.66,425.421,-40465.15000000001,-1703.6892727272862,350.362,8.75423,11.578,12.207,-0.61549,-6.08213,-0.61549,0.33781,-0.61549,-0.517472791
POULHZVOKOAJMA-NDKGDYFDNA-N,acetone,200.32,281.146,-29593.406000000006,-611.7060000000092,289.007,2.86116,10.486,11.486,-1.11687,-2.51932,-0.62792,0.67373,-1.11687,0.317842808
NRPFNQUDKRYCNX-KZFATGLANA-N,toluene,166.176,200.612,-24174.326,-378.5023333333375,201.258,2.45771,9.277,9.486,-1.4324,-0.4412899999999999,-0.55649,0.65,-1.4324,-0.434351102
BOCJQSFSGAZAPQ-UHFFFAOYNA-N,fluorobenzene,242.661,236.9,-25899.33,-727.8606530612269,201.258,2.45771,7.779,10.014,-1.04261,-0.1477799999999999,-0.52653,0.55947,-1.10291,-0.842583206
YGSDEFSMJLZEOE-BGGKNDAXNA-N,n-methyl-2-pyrrolidone,138.123,157.226,-21290.668,-143.85540000000037,201.258,2.45771,8.365,10.9,-1.58296,0.14436,-0.59027,0.6912,-1.58296,0.594834356
CWRYPZZKDGJXCA-UHFFFAOYNA-N,2-methyl-1-propanol,154.211,187.048,-20933.942,427.9868000000024,192.374,1.6570399999999998,9.596,11.508,0.0,-1.64956,-0.29942,0.17084,0.0,-0.74070453
HYYBABOKPJLUIN-HCKMINDGNA-N,acetone,241.289,258.264,-28751.662,-253.5327999999972,192.374,1.6570399999999998,9.744,9.567,-1.09182,-1.33702,-0.61093,0.70159,-1.51408,-1.145226868
UVEWQKMPXAHFST-UHFFFAOYNA-N,2-propanol,181.237,229.817,-24784.144,-1421.2132500000007,192.374,1.6570399999999998,9.896,12.399,0.0,-1.43596,-0.37004,0.17249,-0.37004,0.155639634
RJKGJBPXVHTNJL-UHFFFAOYNA-N,1-hexanol,173.171,192.122,-22426.462,-275.9468780487805,192.374,1.6570399999999998,8.692,12.240000000000002,-1.01116,-1.06471,-0.50673,0.85758,-0.15358,-0.405565488
BONIIQYTWOPUQI-BGGKNDAXNA-N,2-propanol,192.131,189.757,-23350.53,-586.5199999999932,192.374,1.6570399999999998,8.386,14.086,-1.98481,0.6917,-0.51957,0.84765,-1.61405,-1.83927124
YXVFYQXJAXKLAK-UHFFFAOYNA-N,acetonitrile,170.21,207.96,-23378.69,-1036.8189999999995,192.374,1.6570399999999998,12.509,10.39,-0.50372,-1.35571,-0.50372,0.35788,-0.50372,-0.053547735
GUCYFKSBFREPBC-UHFFFAOYNA-N,2-propanol,418.471,401.696,-41184.36,692.9640000000072,192.374,1.6570399999999998,9.431,12.594,-1.82088,-4.32662,-0.88797,1.27068,-0.5502,-1.4407848
ZUOUZKKEUPVFJK-UHFFFAOYNA-N,dichloroethane,154.211,198.095,-21946.758,-1128.128814814816,192.374,1.6570399999999998,10.687,9.479,0.0,-1.59303,-0.17894,0.16262,0.0,0.536382577
PZPZDEIASIKHPY-UHFFFAOYNA-N,nitromethane,242.234,256.544,-26884.302000000003,-162.17733333334036,273.627,5.09331,9.72,9.288,-1.62756,-0.66288,-0.58438,0.87536,-1.29647,-0.500360529
PJANXHGTPQOBST-VAWYXSNFNA-N,cyclohexane,180.249,233.478,-24116.374,-683.0077777777769,273.627,5.09331,9.994,12.938,0.0,-1.83036,-0.18424,0.15521,0.0,-0.892301148
BBEAQIROQSPTKN-UHFFFAOYNA-N,"1,4-dioxane",202.255,222.477,-22097.026,11.082985074626777,273.627,5.09331,8.315000000000001,9.873,0.0,-1.57793,-0.17554,0.15921,0.0,-0.078625705
RGHHSNMVTDWUBI-UHFFFAOYNA-N,toluene,122.123,152.44,-20347.858,-687.7699999999968,145.717,5.019780000000001,8.514,10.153,-0.99196,-0.1485,-0.52657,0.43661,-0.99196,-1.698970004
KRKNYBCHXYNGOX-CUNNJMNPNA-N,1-pentanol,192.125,186.937,-25381.42,-226.2478181818151,145.717,5.019780000000001,9.716,14.511,-3.6867,1.2703,-0.59573,0.68019,-3.6867,-0.134794759
YLQWCDOCJODRMT-UHFFFAOYNA-N,2-butanol,180.206,204.757,-22322.08,-504.7962790697675,212.594,5.31668,8.838000000000001,12.416,-0.5541,-0.80428,-0.5541,0.59703,-0.5541,-0.48148606
NIHNNTQXNPWCJQ-UHFFFAOYNA-N,1-propanol,166.222,200.685,-21659.148,-257.0169999999998,207.02,0.704544,9.821000000000002,11.764,0.0,-1.66708,-0.32636,0.18475,0.0,-0.792705269
LNEPOXFFQSENCJ-UHFFFAOYNA-N,ethanol,375.87,387.773,-36627.09999999999,-1385.1682222222153,207.02,0.704544,9.575,11.642,-1.21212,-2.05298,-0.61439,0.60831,-1.8502,-0.965171156
GJCOSYZMQJWQCA-UHFFFAOYNA-N,methanol,182.221,210.426,-22758.656000000003,-750.2755121951268,207.02,0.704544,10.243,11.661,-0.36925,-1.34197,-0.36925,0.24846,-0.36925,-1.0
ALYNCZNDIQEVRV-BGGKNDAXNA-N,1-butanol,137.138,165.656,-21864.914,-963.9782758620676,159.75400000000002,5.42975,9.664,12.072,-1.11993,0.0237499999999999,-0.62898,0.68414,-1.61823,-0.414554571
JWAZRIHNYRIHIV-UHFFFAOYNA-N,"1,4-dioxane",144.173,175.366,-21157.654,-234.79846153846665,159.75400000000002,5.42975,8.842,10.452,-0.47637,-0.99927,-0.47637,0.35493,-0.47637,0.623520938
RGGYLRDGJAJICY-ZYMSVLFVNA-N,1-octanol,504.627,493.982,-43790.50600000001,-598.6195000000153,159.75400000000002,5.42975,9.275,11.596,-1.48841,-3.0666,-0.64521,0.64091,-2.31498,-2.0
SKZKKFZAGNVIMN-FSHFIPFONA-N,3-methyl-1-butanol,137.138,161.144,-21230.768,-731.5561176470546,159.75400000000002,5.42975,9.433,12.593,-1.18968,0.0584899999999999,-0.68263,0.64172,-1.70993,-0.628932138
PVNIIMVLHYAWGP-FZOZFQFYNA-N,thf,123.111,147.203,-20853.04,-613.3816363636361,159.75400000000002,5.42975,8.385,13.117,-1.07891,0.36585,-0.59799,0.6853,-1.46948,-1.289888744
ALYNCZNDIQEVRV-BGGKNDAXNA-N,heptane,137.138,165.656,-22741.682,-1840.746275862068,159.75400000000002,4.54629,10.474,13.251,-1.0630000000000002,0.03049,-0.57281,0.65788,-1.54936,-1.4213346649534884
VPHHJAOJUJHJKD-KZFATGLANA-N,3-methyl-1-butanol,191.013,187.61,-23541.326,-1893.6529696969665,159.75400000000002,4.54629,8.866999999999999,13.019,-1.06822,0.23832,-0.59278,0.66546,-1.17959,-0.704518008
YRHRIQCWCFGUEQ-UHFFFAOYNA-N,3-methyl-1-butanol,212.266,221.762,-24712.86,-1519.769178571427,236.332,3.15461,8.905,12.031,-0.59027,-0.79575,-0.59027,0.59085,-0.60186,-1.960877372
QECIGCMPORCORE-UHFFFAOYNA-N,cyclohexane,206.243,230.225,-24705.954,-809.1188000000038,236.332,3.15461,9.214,13.099,-0.51856,-1.01883,-0.51856,0.42223,-0.51856,-1.15490196
SZTDSGCADFWGKM-UHFFFAOYNA-N,acetone,224.236,266.635,-29187.77800000001,4471.128666666671,236.332,3.15461,12.747,10.99,-2.8242000000000003,-2.57793,-1.0152,1.49266,-1.33154,-1.759275354
ALYNCZNDIQEVRV-BGGKNDAXNA-N,benzene,137.138,165.819,-23004.324,-2103.3882758620675,236.332,3.15461,9.102,9.576,-1.07187,0.0295099999999999,-0.58114,0.66214,-1.5603,-2.49489534
NIHNNTQXNPWCJQ-UHFFFAOYNA-N,1-butanol,166.222,200.685,-21520.032,-117.90099999999802,236.332,3.15461,9.800999999999998,11.845,0.0,-1.66534,-0.32626,0.18455,0.0,-0.741450662
SYTBZMRGLBWNTM-HCKMINDGNA-N,water,244.265,268.546,-29579.728000000003,-1671.5645000000077,289.884,2.72972,11.139,13.39,-1.09605,-1.17975,-0.60575,0.64876,-1.26114,-4.168933444
MJIHNNLFOKEZEW-PKSOQXRJNA-N,1-pentanol,369.361,339.753,-34270.504,-1627.219999999994,289.884,2.72972,9.487,11.987,-1.21802,-1.21325,-0.80765,1.18304,-1.5145799999999998,-1.587690062
MWPLVEDNUUSJAV-UHFFFAOYNA-N,4-methyl-2-pentanol,178.233,211.323,-21531.962,707.5564571428586,289.884,2.72972,8.97,11.175,0.0,-1.63657,-0.1978,0.17028,0.0,-2.208036932
WURBFLDFSFBTLW-UHFFFAOYNA-N,1-pentanol,210.232,239.777,-26190.31,-1179.6642040816332,289.884,2.72972,8.88,12.986,-1.01124,-0.66941,-0.50571,0.44121,-1.01124,-0.860000001
VPHHJAOJUJHJKD-KZFATGLANA-N,1-butanol,191.013,187.66,-24039.826,-2392.1529696969665,189.242,0.300576,8.998999999999999,12.918,-1.07017,0.24022,-0.59424,0.66676,-1.18292,-0.66038026