InChIkey,Solvent,MW,SASA,G_sol,DeltaG_sol,Volume,sol_dip,LsoluHsolv,LsolvHsolu,O_charges,C_charges,Most_neg,Most_pos,Het_charges,LogS
HEFNNWSXXWATRW-YHMJCDSINA-N,1-pentanol,206.284,257.119,-28505.93,-510.2780645161329,176.952,4.4237,10.307,12.258,-1.096,-1.97421,-0.6204,0.6421,-1.096,0.219425225
SJEBAWHUJDUKQK-UHFFFAOYNA-N,1-octanol,236.27,258.723,-27149.724,-658.0157599999984,176.952,4.4237,8.442,12.923000000000002,-1.09742,-0.93005,-0.55348,0.56468,-1.09742,-1.160000001
MWPLVEDNUUSJAV-UHFFFAOYNA-N,benzene,178.233,211.323,-21523.248,716.2704571428585,221.705,0.000726447,8.313,8.536,0.0,-1.56652,-0.19343,0.16278,0.0,-1.080921908
CWRYPZZKDGJXCA-UHFFFAOYNA-N,1-hexanol,154.211,186.967,-20963.472,398.45679999999993,221.705,0.000726447,9.688,11.446000000000002,0.0,-1.6452300000000002,-0.29913,0.17035,0.0,-0.505845406
JWAZRIHNYRIHIV-UHFFFAOYNA-N,dmf,144.173,175.366,-21183.86,-261.00446153846497,176.437,1.37591,8.515,9.949,-0.49718,-1.04753,-0.49718,0.35553,-0.49718,0.703778895
BMLIZLVNXIYGCK-WXRBYKJCNA-N,1-heptanol,198.652,226.384,-25422.242,-1526.4845517241338,229.858,7.20555,9.982,11.754,-0.66435,-0.42849,-0.66435,0.6824,-1.59719,-0.979999999
LETVJWLLIMJADE-GLFQYTTQNA-N,1-butanol,95.1036,126.158,-18858.434,-483.5092500000028,114.318,5.62831,9.347,12.823,0.0,-0.17801,-0.47703,0.2773,-0.95448,-0.733322858
LXNHXLLTXMVWPM-UHFFFAOYNA-N,methanol,169.18,191.975,-23978.572,-408.6764999999941,196.258,3.9122,9.808,12.303,-1.67215,-0.41787,-0.59813,0.36792,-2.02676,-0.298749798
ROORDVPLFPIABK-UHFFFAOYNA-N,ethanol,214.22,244.888,-26075.898,-876.0002857142899,196.258,3.9122,9.441,12.911,-1.33359,-0.42105,-0.56058,0.76552,-1.33359,-0.655250127
CFOAUYCPAUGDFF-UHFFFAOYNA-N,thf,195.236,215.941,-25669.572,-463.8172000000013,196.258,3.9122,9.203,12.392,-1.95903,-1.95531,-0.98072,2.46364,0.2477599999999997,0.269512944
BXRFQSNOROATLV-UHFFFAOYNA-N,1-propanol,151.121,171.369,-21994.404,592.1389999999992,196.258,3.9122,8.299000000000001,13.371,-1.54869,-0.20039,-0.53738,0.84475,-0.70394,-20.0
PZPZDEIASIKHPY-UHFFFAOYNA-N,chloroform,242.234,257.36,-26994.226,-272.1013333333394,196.258,3.9122,9.855,9.06,-1.59882,-0.71737,-0.57035,0.86831,-1.20398,-1.013343965
KFIRODWJCYBBHY-QIQUEDJNNA-N,water,211.131,203.888,-25779.964000000004,-1165.8660000000054,196.258,3.9122,9.778,15.169999999999998,-3.00637,0.8070900000000001,-0.56531,0.84679,-2.15958,-1.007761975
GJCOSYZMQJWQCA-UHFFFAOYNA-N,2-methyl-1-propanol,182.221,210.426,-22702.586,-694.2055121951234,218.229,2.17457,10.005,11.804,-0.36759,-1.33714,-0.36759,0.24956,-0.36759,-0.920818754
XNERWVPQCYSMLC-KZFATGLANA-N,acetonitrile,146.145,186.689,-22608.155999999995,-92.87199999999577,218.229,2.17457,11.697,11.315,-1.07361,-0.14008,-0.60737,0.75183,-1.07361,0.139879086
MWPLVEDNUUSJAV-UHFFFAOYNA-N,heptane,178.233,211.323,-21520.494,719.0244571428557,218.229,2.17457,9.687,12.195,0.0,-1.55243,-0.19263,0.16125,0.0,-1.958607315
XPCTZQVDEJYUGT-UHFFFAOYNA-N,1-propanol,126.112,149.163,-20533.858,-527.57575,218.229,2.17457,9.517,12.424,-1.33897,-0.0475799999999999,-0.61743,0.56876,-1.33897,-0.701060233
YGSDEFSMJLZEOE-BGGKNDAXNA-N,ethanol,138.123,157.285,-21759.94,-613.1274000000049,218.229,2.17457,9.533,12.617,-1.5896400000000002,0.1514699999999999,-0.62953,0.69531,-1.5896400000000002,0.326044588
JJVNINGBHGBWJH-UHFFFAOYNA-N,acetonitrile,152.149,178.617,-23074.942000000003,-1169.3236000000034,218.229,2.17457,11.67,10.487,-1.4436,-0.07939,-0.57891,0.47274,-1.4436,0.408239965
PEQHIRFAKIASBK-UHFFFAOYNA-N,formamide,320.433,334.609,-32350.536,-801.195799999994,401.929,0.00375775,10.546,10.366,0.0,-3.20327,-0.18925,0.16328,0.0,-4.899998417
BOCJQSFSGAZAPQ-UHFFFAOYNA-N,1-pentanol,242.661,236.9,-25951.906000000003,-780.4366530612278,401.929,0.00375775,8.258000000000001,12.874,-1.07622,-0.1246599999999999,-0.54187,0.56918,-1.14291,-2.091635528
YLQWCDOCJODRMT-UHFFFAOYNA-N,propionitrile,180.206,204.757,-22314.442000000003,-497.15827906976847,401.929,0.00375775,10.833,10.716,-0.55895,-0.80442,-0.55895,0.59914,-0.55895,0.298853076
KSKWGMNRWCYVAT-UHFFFAOYNA-N,1-propanol,256.255,274.836,-32075.944000000003,-562.0345714285722,301.832,4.07045,9.546,13.802,-3.02048,0.0176399999999999,-0.58362,0.68421,-3.02048,-2.004865805
VPHHJAOJUJHJKD-KZFATGLANA-N,thf,191.013,187.66,-24556.384,-2908.710969696964,189.242,0.293939,8.210999999999999,12.385,-1.0666,0.2375099999999999,-0.59043,0.6648,-1.1777,0.077283116
YVUQSNJEYSNKRX-VJSLDGLSNA-N,"1,4-dioxane",461.553,470.991,-39443.858,-383.8551249999946,189.242,0.293939,9.364,10.488,-0.57929,-2.53079,-0.57929,0.63948,-2.03389,-0.909525277
BMLIZLVNXIYGCK-WXRBYKJCNA-N,heptane,198.652,226.523,-25896.084000000003,-2000.326551724138,189.242,0.293939,10.772,12.958,-0.59955,-0.39181,-0.59955,0.67461,-1.5456,-3.420000453
DWMREKMVXIFPFM-RWWBHRBBNA-N,2-propanol,351.394,322.14,-33028.552,-995.514083333328,358.462,5.23717,8.965,11.771,-2.92746,-0.88484,-0.98016,2.49474,-1.7572299999999998,-3.2859814
PDMMFKSKQVNJMI-BLQWBTBKNA-N,benzene,344.493,357.957,-36423.96400000001,-730.6200000000099,447.706,7.85566,9.514,10.442,-1.57834,-3.35911,-0.57448,0.65183,-1.57834,0.606671534
FFGPTBGBLSHEPO-ZHLVXTBQNA-N,acetonitrile,236.273,250.419,-26783.906000000003,-928.7510000000002,447.706,7.85566,12.078,10.249,-0.67824,-0.67513,-0.67824,0.69494,-1.61522,-0.763074982
REYJJPSVUYRZGE-UHFFFAOYNA-N,thf,269.513,391.96,-36762.038,-534.7690000000002,447.706,7.85566,12.989999999999998,12.003,0.0,-4.81501,-0.57392,0.22514,-0.57392,0.225309282
MWPLVEDNUUSJAV-UHFFFAOYNA-N,nonane,178.233,211.323,-21521.084000000003,718.4344571428555,447.706,7.85566,9.465,12.139,0.0,-1.55634,-0.19285,0.16168,0.0,-1.920818754
PVNIIMVLHYAWGP-FZOZFQFYNA-N,ethanol,123.111,147.186,-20700.078,-460.4196363636365,447.706,7.85566,9.364,13.647,-1.08364,0.3707,-0.60402,0.68813,-1.47873,-1.164050063
NRPFNQUDKRYCNX-KZFATGLANA-N,water,166.176,200.399,-24501.784,-705.9603333333362,200.439,2.88987,11.629,13.148,-1.51479,-0.46247,-0.61641,0.68144,-1.51479,-1.443697499
BMLIZLVNXIYGCK-WXRBYKJCNA-N,benzene,198.652,226.238,-25750.95,-1855.192551724136,200.439,2.88987,9.395,9.298,-0.60994,-0.3978699999999999,-0.60994,0.67628,-1.55457,-1.820000014
ISAOCJYIOMOJEB-UHFFFAOYNA-N,o-xylene,212.248,240.197,-26779.586,-1107.81331578947,200.439,2.88987,8.165000000000001,10.229,-1.04445,-1.04767,-0.52753,0.49306,-1.04445,-1.321340139
GJCOSYZMQJWQCA-UHFFFAOYNA-N,1-butanol,182.221,210.426,-22709.988,-701.6075121951253,200.439,2.88987,10.076,11.753,-0.3675,-1.33695,-0.3675,0.24961,-0.3675,-0.721246399
BBEAQIROQSPTKN-UHFFFAOYNA-N,methanol,202.255,222.477,-22120.264000000003,-12.155014925374417,242.483,0.00183362,9.013,11.045,0.0,-1.67212,-0.17878,0.16876,0.0,-1.438898616
NVKJOXRVEKMMHS-UHFFFAOYNA-N,ethanol,128.047,130.739,-20951.046,-1596.5314285714303,242.483,0.00183362,6.176000000000001,14.965,-1.04024,0.55628,-0.41654,0.85535,-0.55628,-0.630541442
QRXWMOHMRWLFEY-BGGKNDAXNA-N,water,137.141,165.919,-22103.36,-1010.4732000000004,242.483,0.00183362,10.675,14.395,-0.63729,0.1391099999999999,-0.63729,0.55138,-1.70609,0.01
LXNHXLLTXMVWPM-UHFFFAOYNA-N,acetone,169.18,191.418,-23981.598,-411.7024999999958,195.854,6.0038800000000005,9.498,10.262,-1.65477,-0.42516,-0.59447,0.354,-1.99311,-1.659666318
PEGCITODQASXKH-UHFFFAOYNA-N,toluene,216.219,241.804,-27329.822000000004,-251.4237142857128,195.854,6.0038800000000005,9.014,10.37,-0.95373,-2.67216,-0.95373,1.45681,0.50308,-0.575856198
VPHHJAOJUJHJKD-KZFATGLANA-N,2-methyl-1-propanol,191.013,187.61,-23562.964,-1915.2909696969648,189.143,3.56868,8.926,12.966,-1.06991,0.23963,-0.5947,0.66639,-1.18214,-0.824919802
CMWTZPSULFXXJA-GTNTULIANA-N,ethanol,230.263,261.168,-28322.108,-636.1637714285644,189.143,3.56868,9.508,11.629,-1.49073,-1.10719,-0.60492,0.64217,-1.49073,-0.516329144
KZTYYGOKRVBIMI-UHFFFAOYNA-N,2-propanol,218.27,231.896,-25843.942,363.8419166666681,249.514,7.58173,10.072,13.023,-1.99697,-2.10115,-0.99858,2.45794,0.4609699999999997,-1.339595906
HEWGVSGLMQJYHJ-UHFFFAOYNA-N,dmso,288.048,229.267,-26371.410000000003,230.7376666666605,249.514,7.58173,6.401999999999999,10.993,-0.98529,0.76285,-0.49271,0.61685,-1.66338,-0.688584156
HYYBABOKPJLUIN-HCKMINDGNA-N,2-propanol,241.289,258.297,-28567.746000000006,-69.61680000000342,249.514,7.58173,10.052,11.954,-1.09007,-1.3364,-0.61075,0.70115,-1.51266,-1.476948484
GJCOSYZMQJWQCA-UHFFFAOYNA-N,"1,2-dichloroethane",182.221,210.426,-22705.902,-697.521512195126,249.514,7.58173,10.557,9.283,-0.36512,-1.32978,-0.36512,0.25118,-0.36512,0.209515015
YSSSPARMOAYJTE-UHFFFAOYNA-N,thf,360.406,365.933,-35269.824,-255.4230588235296,249.514,7.58173,9.27,11.481,-2.57682,-1.1978,-0.47279,0.23416,-2.57682,-1.657577319
RXKNNAKAVAHBNK-UHFFFAOYNA-N,"1,4-dioxane",140.098,154.652,-20091.288,1436.9156842105294,249.514,7.58173,7.647,11.975,-1.49636,-0.8066,-0.53811,0.85103,-0.03277,-0.384049948
WJFKNYWRSNBZNX-UHFFFAOYNA-N,2-methyl-1-pentanol,199.27,217.299,-25088.364,-1841.7440000000024,249.514,7.58173,9.74,10.94,0.0,-1.22011,-0.39834,0.29726,-0.43052,-1.16198041
KBOPZPXVLCULAV-KZFATGLANA-N,water,153.137,171.317,-22545.09,-721.6687999999958,167.314,2.76731,10.652,12.665,-1.59492,0.2819399999999999,-0.59443,0.68229,-2.10495,-2.180000032
YLYIXDZITBMCIW-UHFFFAOYNA-N,ethanol,213.235,242.057,-26634.934,-820.8353333333362,253.54100000000005,4.24812,9.793,12.149,-0.94005,-0.89181,-0.60271,0.61225,-1.12632,-1.0
VHHHONWQHHHLTI-UHFFFAOYNA-N,"cis-1,4-dimethylcyclohexane",236.74,176.295,-21899.832,-39.58930434782815,253.54100000000005,4.24812,8.802000000000001,15.605999999999998,0.0,0.2954,-0.04925,0.1477,-0.29539,0.099546157
DDBREPKUVSBGFI-LUXCBXFANA-N,water,232.238,238.424,-27414.644,-1125.863333333327,266.791,10.6092,10.093,14.029,-1.32446,0.2274,-0.66979,0.75809,-2.65483,-2.250752369
MWOOGOJBHIARFG-UHFFFAOYNA-N,trifluoroethanol,152.149,180.729,-23149.838,-1053.5265999999974,266.791,10.6092,10.338,10.169,-1.43576,-0.1012799999999999,-0.57626,0.45102,-1.43576,0.307282047
DCOPUUMXTXDBNB-GPQMBLKYNA-N,1-octanol,296.152,281.899,-29983.962,-1401.7253999999994,323.346,1.30022,9.796,11.688,-1.09623,-0.60988,-0.60207,0.67213,-1.66304,-1.050287878
RISDZDVHYCURHD-JZUIEBFJNA-N,dichloromethane,877.042,819.38,-70082.08000000002,-585.6432000000204,323.346,1.30022,9.144,8.796,-6.0491,-3.91349,-0.62771,0.70873,-7.30745,-0.620786432
NIHNNTQXNPWCJQ-UHFFFAOYNA-N,cyclooctane,166.222,200.685,-21553.0,-150.86899999999878,206.993,0.566295,10.047,13.231000000000002,0.0,-1.5856,-0.32139,0.17629,0.0,-0.455534005
BSYNRYMUTXBXSQ-WXRBYKJCNA-N,2-propanol,180.16,197.949,-25450.67,-1276.388150000006,206.993,0.566295,9.387,13.278,-2.0787,0.3298700000000001,-0.59849,0.71852,-2.0787,-0.180456064
CKAPSXZOOQJIBF-UHFFFAOYNA-N,4-methyl-2-pentanol,284.784,220.81,-23576.78,1947.21785714286,206.993,0.566295,8.979000000000001,12.895,0.0,0.06097,-0.01031,0.01027,-0.06095,-1.944853482
YNPNZTXNASCQKK-UHFFFAOYNA-N,tert-butylcyclohexane,178.233,209.472,-23053.752,-672.1721666666672,206.993,0.566295,9.585,12.614,0.0,-1.54426,-0.16868,0.15802,0.0,-0.525507915
BOCJQSFSGAZAPQ-UHFFFAOYNA-N,heptane,242.661,236.9,-25826.356,-654.8866530612213,206.993,0.566295,9.037,14.072,-0.97254,-0.1939399999999999,-0.49386,0.53854,-1.02039,-2.551135137
ZFXYFBGIUFBOJW-FZOZFQFYNA-N,peg400,180.166,189.781,-23750.936,-983.4998461538488,206.993,0.566295,9.022,10.673,-1.20127,0.71245,-0.60091,0.68455,-2.34243,-1.157000003
GJCOSYZMQJWQCA-UHFFFAOYNA-N,2-butanol,182.221,210.426,-22704.046,-695.6655121951226,206.993,0.566295,10.118,11.873,-0.36731,-1.33638,-0.36731,0.24974,-0.36731,-0.886056648
RWCCWEUUXYIKHB-UHFFFAOYNA-N,dodecane,182.221,219.551,-23847.336,-449.6959999999963,228.667,3.98742,9.953,14.094,-0.52279,-1.05675,-0.52279,0.55231,-0.52279,-0.887551232
GPSDUZXPYCFOSQ-BGGKNDAXNA-N,2-pentanol,136.15,170.191,-21994.966,-801.3810857142853,228.667,3.98742,9.52,12.702,-1.08964,-0.4883199999999999,-0.60731,0.65781,-1.08964,0.249148387
LETVJWLLIMJADE-GLFQYTTQNA-N,acetone,95.1036,126.158,-18858.538,-483.61325000000215,228.667,3.98742,9.256,10.563,0.0,-0.17598,-0.47742,0.27791,-0.95826,-0.918113666
HYYBABOKPJLUIN-HCKMINDGNA-N,cyclohexane,241.289,270.301,-29398.568,-900.4387999999963,228.667,3.98742,9.943,12.963,-1.07057,-1.28266,-0.59202,0.67056,-1.4837,-3.564201804
BOCJQSFSGAZAPQ-UHFFFAOYNA-N,benzene,242.661,236.9,-25844.457999999995,-672.9886530612202,228.667,3.98742,7.667000000000001,10.406,-0.98841,-0.1837600000000001,-0.50133,0.54336,-1.03898,-0.868717312
YNPNZTXNASCQKK-UHFFFAOYNA-N,toluene,178.233,209.472,-22996.544,-614.9641666666685,228.667,3.98742,8.449,9.087,0.0,-1.55748,-0.16969,0.15944,0.0,0.302114377
HEFNNWSXXWATRW-YHMJCDSINA-N,chloroform,206.284,257.716,-28636.728,-641.0760645161317,228.667,3.98742,11.473,8.695,-1.0794700000000002,-1.96296,-0.58223,0.63244,-1.0794700000000002,0.419613287
DWCLXOREGBLXTD-UHFFFAOYNA-N,"1,4-dioxane",176.172,185.737,-23835.102,507.53928571428696,210.085,8.18892,8.509,13.043,-1.82143,-1.85378,-0.51353,0.72147,-0.37852,-1.299257051
CWRYPZZKDGJXCA-UHFFFAOYNA-N,water,154.211,187.008,-20854.206,507.7228000000032,210.085,8.18892,11.091,12.557,0.0,-1.65996,-0.30033,0.172,0.0,-4.585000004
NIHNNTQXNPWCJQ-UHFFFAOYNA-N,propionitrile,166.222,200.685,-21667.174,-265.04299999999785,207.02,0.711192,11.839,10.271,0.0,-1.67033,-0.32654,0.18509,0.0,-0.11543062
XPCTZQVDEJYUGT-UHFFFAOYNA-N,1-butanol,126.112,149.7,-20466.108,-459.82575,207.02,0.711192,9.549,12.521999999999998,-1.33514,-0.0464199999999999,-0.60831,0.61275,-1.33514,-0.803463108
WURBFLDFSFBTLW-UHFFFAOYNA-N,nonane,210.232,239.918,-25993.114,-982.4682040816296,207.02,0.711192,9.533,14.066,-0.92903,-0.68469,-0.46464,0.42057,-0.92903,-1.350000002
BSYNRYMUTXBXSQ-WXRBYKJCNA-N,4-methyl-2-pentanol,180.16,198.81,-25463.694,-1289.4121500000074,207.02,0.711192,9.259,13.215,-2.06732,0.32414,-0.60379,0.7118,-2.06732,-0.507239611
UFWIBTONFRDIAS-UHFFFAOYNA-N,"2,2,4-trimethylpentane",128.173,165.583,-19413.612,183.1710303030304,207.02,0.711192,10.105,12.87,0.0,-1.22296,-0.16882,0.15481,0.0,-0.159893906
SKZKKFZAGNVIMN-FSHFIPFONA-N,methanol,137.138,161.144,-21235.586,-736.3741176470539,156.644,6.6696100000000005,9.735,12.398,-1.20054,0.0576999999999999,-0.6899,0.64177,-1.71727,-0.025950076
WURBFLDFSFBTLW-UHFFFAOYNA-N,3-methoxy-1-butanol,210.232,240.004,-25872.17,-861.5242040816302,156.644,6.6696100000000005,8.032,12.437,-1.00401,-0.67479,-0.50204,0.44674,-1.00401,-0.298707196
GVIJJXMXTUZIOD-UHFFFAOYNA-N,acetonitrile,216.315,223.654,-23834.0,-835.3623157894726,239.648,2.18291,12.097,10.095,0.0,-1.2947,-0.14275,0.17771,-0.0993,-1.698970004
PJANXHGTPQOBST-VAWYXSNFNA-N,ethanol,180.249,233.489,-24314.666,-881.2997777777746,235.571,0.0054468,9.806,11.783,0.0,-1.92897,-0.19106,0.16349,0.0,-1.267226294
RZVAJINKPMORJF-BGGKNDAXNA-N,dichloromethane,151.165,185.54,-23528.694,-609.5046842105257,235.571,0.0054468,10.624,8.945,-1.13562,-0.4281,-0.6385,0.66068,-1.57654,-2.522878745
JZFDKGFWNSQAHU-GPQMBLKYNA-N,"1,4-dioxane",254.285,281.612,-30961.054,-1554.370799999993,309.446,5.01325,8.724,11.532,-1.52917,-0.90395,-0.54175,0.63531,-1.52917,-1.017635064
WJFKNYWRSNBZNX-UHFFFAOYNA-N,decane,199.27,217.26,-24338.732000000004,-1092.1120000000046,229.018,2.61726,10.46,12.036,0.0,-1.16966,-0.39594,0.27945,-0.39235,-2.262786916
YLYIXDZITBMCIW-UHFFFAOYNA-N,chloroform,213.235,241.758,-26628.754,-814.6553333333322,253.793,3.83078,10.682,8.508000000000001,-0.90606,-0.88034,-0.57227,0.60251,-1.09943,0.146128036
MNIPYSSQXLZQLJ-UYBDAZJANA-N,ethanol,354.189,327.057,-33912.594,-817.0249999999942,253.793,3.83078,9.915,11.812,-2.0169900000000003,-0.1288399999999999,-0.59752,0.68107,-2.57011,-1.408935393
ZUOUZKKEUPVFJK-UHFFFAOYNA-N,2-propanol,154.211,198.095,-22087.91,-1269.2808148148142,253.793,3.83078,10.272,12.322,0.0,-1.60228,-0.17999,0.16345,0.0,-0.347850725
ZWLPBLYKEWSWPD-BGGKNDAXNA-N,2-isopropoxyethanol,136.15,166.569,-23039.446,-2031.3632499999983,164.799,3.54732,9.196,11.656,-1.09304,-0.49113,-0.61699,0.67931,-1.09304,0.190145056
ROAXLGSFGIOFMH-UHFFFAOYNA-N,chlorobenzene,296.343,305.683,-28575.366,237.5596666666679,331.743,3.49906,8.644,9.424,-0.53042,-0.97693,-0.38743,0.32426,-1.28323,-0.819532813
CIWBSHSKHKDKBQ-JLAZNSOCNA-N,thf,176.126,182.063,-24853.068,-922.0245000000032,183.405,2.9066,8.414,12.23,-2.86681,0.7383900000000001,-0.57106,0.63592,-2.86681,-2.096910013
YNPNZTXNASCQKK-UHFFFAOYNA-N,undecane,178.233,209.472,-23052.16,-670.5801666666666,183.405,2.9066,9.912,12.702,0.0,-1.54418,-0.16869,0.15801,0.0,-0.540607512
CKAPSXZOOQJIBF-UHFFFAOYNA-N,hexane,284.784,220.81,-23575.78,1948.21785714286,239.628,0.00113065,9.503,14.392,0.0,0.0224,-0.00379,0.00379,-0.02239,-1.701146924
YKPUWZUDDOIDPM-ZDGHGLDFNA-N,hexane,305.416,365.671,-37670.898,-916.301999999996,239.628,0.00113065,10.856,13.1,-1.40292,-2.5276,-0.59606,0.60273,-1.88159,-3.176756673
ZPSPULCZMWMHCY-GHUVFRGKNA-N,ethanol,276.656,254.016,-29879.626000000004,-1885.7136666666704,239.628,0.00113065,10.178,12.564,-2.88287,-1.43935,-0.92354,1.84956,-1.13192,-0.942467955
QELSKZZBTMNZEB-UHFFFAOYNA-N,1-propanol,180.203,221.778,-26127.396,-1249.1085454545464,239.628,0.00113065,9.6,12.576,-1.5203600000000002,-0.64015,-0.61824,0.68416,-1.5203600000000002,0.332873007
ZPSPULCZMWMHCY-GHUVFRGKNA-N,2-propanol,276.656,255.781,-28912.288,-918.3756666666668,294.93,6.162039999999999,10.142,12.765,-2.89949,-1.4347,-0.94973,1.85679,-1.14743,-0.578784867
ZEYHEAKUIGZSGI-BGGKNDAXNA-N,2-methyl-2-propanol,152.149,180.352,-23587.89,-2101.368068965516,178.107,5.37967,9.692,12.739,-1.48117,-0.0968599999999999,-0.6176,0.68227,-1.48117,-0.769551079
CDVNZMKTJIBBBV-WXRBYKJCNA-N,1-propanol,226.145,221.17,-26894.0,-1811.155333333325,178.107,5.37967,8.342,14.0,-3.00028,-0.15642,-0.57227,0.87967,-1.2471299999999998,-0.664380849
CKAPSXZOOQJIBF-UHFFFAOYNA-N,methylcyclohexane,284.784,220.81,-23576.276,1947.72185714286,178.107,5.37967,9.145,14.243,0.0,0.02405,-0.00408,0.00406,-0.02405,-1.514023238
CWRYPZZKDGJXCA-UHFFFAOYNA-N,methanol,154.211,187.049,-20846.346,515.5828000000038,178.107,5.37967,9.834,11.364,0.0,-1.65553,-0.2999,0.17151,0.0,-0.879755204
YLQWCDOCJODRMT-UHFFFAOYNA-N,methanol,180.206,204.757,-22315.036000000004,-497.75227906976943,178.107,5.37967,8.962,12.195,-0.56009,-0.80445,-0.56009,0.59963,-0.56009,-0.431798276
SYTBZMRGLBWNTM-HCKMINDGNA-N,peg400,244.265,269.374,-29744.224,-1836.0605000000032,290.73900000000003,3.825720000000001,9.108,10.549,-1.08083,-1.16854,-0.60786,0.64178,-1.24221,0.102
QTFHBEDSKOMZFW-CYSPOYASNA-N,dmso,516.633,506.144,-50001.60999999999,332.3016000000134,660.416,7.09241,8.033999999999999,9.883,-3.36156,-2.97345,-0.65172,0.73103,-4.32872,-1.22184875
REFJWTPEDVJJIY-UHFFFAOYNA-N,1-propanol,302.24,288.55,-29663.95,598.0084999999999,660.416,7.09241,8.896,12.185,-3.19759,0.37137,-0.62213,0.58714,-3.19759,-1.053935411
NSPMIYGKQJPBQR-UHFFFAOYSA-N,ethanol,69.0658,95.9042,-16452.602,-358.3847999999998,80.44590000000001,6.40292,10.53,13.602,0.0,-0.32701,-0.24986,0.32196,-0.4323,0.503382063
HVYWMOMLDIMFJA-DPAQBDIFNA-N,water,386.66,428.918,-40198.538,-1437.077272727278,80.44590000000001,6.40292,12.997,13.302,-0.62171,-6.1132100000000005,-0.62171,0.34162,-0.62171,-7.0
IQPNAANSBPBGFQ-UHFFFAOYNA-N,1-propanol,286.24,282.012,-29406.288000000004,115.21424999999,80.44590000000001,6.40292,9.052,12.121,-2.84072,0.1260899999999999,-0.64527,0.68464,-2.84072,-1.490402355
XMTQQYYKAHVGBJ-XWKXFZRBNA-N,2-propanol,233.097,243.667,-26889.878,-1905.1864800000003,80.44590000000001,6.40292,9.876,12.126,-0.66574,-0.267,-0.66574,0.68082,-1.63436,-0.998004604
JLKIGFTWXXRPMT-NDKGDYFDNA-N,2-propanol,253.275,255.312,-28658.494,-1232.5357142857174,273.247,9.4095,10.172,12.184,-2.07798,-1.29262,-0.97545,2.59564,-1.11939,-1.350810789
OGJPXUAPXNRGGI-QWOVJGMINA-N,chloroform,319.335,320.565,-33474.10400000001,-962.7233333333425,361.169,12.2469,10.338,8.07,-1.69426,-0.4118299999999998,-0.62656,0.73142,-2.7974300000000003,-2.804972855
YVUQSNJEYSNKRX-VJSLDGLSNA-N,cyclohexane,461.553,461.351,-38904.684,155.31887500001176,361.169,12.2469,10.314,12.85,-0.58237,-2.51066,-0.58237,0.63727,-2.04413,-3.985206538
ACWBQPMHZXGDFX-XGLYSIDGNA-N,dmf,435.525,420.822,-41868.408,-1109.7508000000016,361.169,12.2469,8.667,10.663,-1.7314699999999998,-2.33876,-0.64582,0.63526,-2.65831,-0.651406468