InChIkey,Solvent,MW,SASA,G_sol,DeltaG_sol,Volume,sol_dip,LsoluHsolv,LsolvHsolu,O_charges,C_charges,Most_neg,Most_pos,Het_charges,LogS
CDVNZMKTJIBBBV-WXRBYKJCNA-N,2-methyl-1-propanol,226.145,221.228,-26825.916,-1743.0713333333297,230.109,5.80734,8.237,14.136,-2.99408,-0.16132,-0.57745,0.87876,-1.24061,-1.052523758
YRHRIQCWCFGUEQ-UHFFFAOYNA-N,hexane,212.266,221.762,-24045.114,-852.0231785714277,230.109,5.80734,9.874,13.296,-0.53638,-0.8027399999999999,-0.53638,0.56349,-0.53053,-2.608544052
OBKXEAXTFZPCHS-WXRBYKJCNA-N,chloroform,164.204,211.451,-24242.494,-436.0443333333351,230.109,5.80734,11.57,8.864,-1.08843,-1.05305,-0.59039,0.65694,-1.08843,0.606381365
MWPLVEDNUUSJAV-UHFFFAOYNA-N,2-butoxyethanol,178.233,211.323,-21532.372,707.1464571428623,230.109,5.80734,8.623999999999999,10.052,0.0,-1.63072,-0.19738,0.16966,0.0,-1.540750054
FAOHQGXEASKQDL-AHPDCHJINA-N,1-octanol,215.685,244.023,-28781.374,-2752.352545454545,254.29200000000003,6.88017,9.49,12.638000000000002,0.0,-0.1488,-0.578,0.51802,-2.42139,-1.319379383
QELSKZZBTMNZEB-UHFFFAOYNA-N,1-butanol,180.203,215.627,-26569.276,-1690.9885454545438,254.29200000000003,6.88017,9.612,12.646999999999998,-1.51872,-0.63751,-0.61765,0.68906,-1.51872,0.415932454
BBEAQIROQSPTKN-UHFFFAOYNA-N,dmf,202.255,222.477,-22115.316000000003,-7.207014925374096,254.29200000000003,6.88017,7.964,9.387,0.0,-1.65733,-0.17834,0.16727,0.0,-0.517741774
LDCRTTXIJACKKU-ONEGZZNKNA-N,methanol,144.127,180.974,-23767.408,-317.6553333333395,254.29200000000003,6.88017,8.994,14.416,-1.91038,0.4584999999999999,-0.57518,0.65077,-1.91038,-0.739928612
ZUOUZKKEUPVFJK-UHFFFAOYNA-N,decane,154.211,198.05,-21527.392000000003,-708.7628148148178,254.29200000000003,6.88017,10.651,13.354,0.0,-1.52858,-0.17188,0.1565,0.0,-0.058218883
IKGXIBQEEMLURG-NVPNHPEKNA-N,acetone,610.524,519.5,-50111.34,-498.3822857142805,254.29200000000003,6.88017,8.77,10.136,-7.9195,0.8145800000000001,-0.63347,0.62219,-7.9195,-2.386965585
ILUJQPXNXACGAN-BGGKNDAXNA-N,2-butanol,152.149,178.296,-23811.906000000003,-928.2337837837912,254.29200000000003,6.88017,9.583,12.551000000000002,-1.47961,-0.07631,-0.60778,0.69975,-1.47961,-0.301029996
YRHRIQCWCFGUEQ-UHFFFAOYNA-N,2-propanol,212.266,221.762,-24802.516000000003,-1609.4251785714296,254.29200000000003,6.88017,9.245,12.053999999999998,-0.59322,-0.7953,-0.59322,0.59222,-0.60568,-2.045942636
HEFNNWSXXWATRW-YHMJCDSINA-N,n-methyl-2-pyrrolidone,206.284,256.531,-28460.939999999995,-465.2880645161276,277.904,2.65949,9.418,10.596,-1.09731,-1.97455,-0.60049,0.64118,-1.09731,0.741309209
GJCOSYZMQJWQCA-UHFFFAOYNA-N,2-methyl-2-butanol,182.221,210.426,-22681.714,-673.3335121951241,277.904,2.65949,10.106,11.936,-0.36094,-1.31683,-0.36094,0.25387,-0.36094,-0.744727495
ZNNLBTZKUZBEKO-PLJOYGPPNA-N,acetonitrile,494.004,493.043,-43873.516,-1974.3819999999905,277.904,2.65949,11.866,10.779,-3.69916,-1.87327,-0.98385,2.59563,-3.03304,-4.65631188
GVPWHKZIJBODOX-UHFFFAOYNA-N,hexane,246.385,274.816,-28940.16,-1106.8856000000014,277.904,2.65949,9.914,13.389,0.0,-2.1331,-0.32871,0.18313,-0.10152,-1.223209925
JZFPYUNJRRFVQU-VEWCPZSHNA-N,heptane,282.222,276.606,-28657.06600000001,-519.9746315789525,277.904,2.65949,9.767,13.153,-1.05252,0.5566099999999999,-0.54642,0.67867,-2.43519,-1.301029996
BBYDXOIZLAWGSL-BGGKNDAXNA-N,ethanol,140.114,158.548,-22049.886,-1448.7880000000005,277.904,2.65949,9.508,13.334,-1.09244,0.1439999999999999,-0.61053,0.67585,-1.25438,-0.021606967
SQNZJJAZBFDUTD-UHFFFAOYNA-N,1-pentanol,134.221,191.408,-22596.122,-127.47141935483523,277.904,2.65949,10.642,11.681,0.0,-2.34825,-0.49101,0.17089,0.0,-0.19339702
BBEAQIROQSPTKN-UHFFFAOYNA-N,nonane,202.255,222.477,-22095.438,12.670985074626516,242.487,0.000472182,9.443,12.144,0.0,-1.57045,-0.17523,0.15845,0.0,-1.029606628
ZUOUZKKEUPVFJK-UHFFFAOYNA-N,"trans-1,2-dimethylcyclohexane",154.211,198.05,-21527.094,-708.4648148148153,242.487,0.000472182,10.4,13.172999999999998,0.0,-1.52857,-0.17188,0.15649,0.0,0.092566273
WMKGGPCROCCUDY-PHEQNACWNA-N,cyclohexane,234.297,291.522,-29468.166000000005,-1361.954666666672,301.62699999999995,4.351999999999999,9.566,13.729,-0.53917,-1.70754,-0.53917,0.58608,-0.53917,-1.63380312
YSSSPARMOAYJTE-UHFFFAOYNA-N,acetonitrile,360.406,379.156,-35620.15400000001,-605.7530588235386,433.449,1.89393,12.601,10.094,-2.59646,-1.21408,-0.49478,0.19548,-2.59646,-1.102372909
WLJVXDMOQOGPHL-BGGKNDAXNA-N,methanol,136.15,170.925,-21615.954,-576.9002222222189,433.449,1.89393,10.386,12.594,-1.10144,-0.50118,-0.61545,0.68404,-1.10144,0.754730469
YJGVMLPVUAXIQN-XVVDYKMHNA-N,2-propanol,414.411,384.903,-36945.546,141.61633333334612,465.372,5.50393,9.941,12.108,-3.4666,-0.47142,-0.58237,0.66574,-3.4666,-1.202040356
WURBFLDFSFBTLW-UHFFFAOYNA-N,2-isopropoxyethanol,210.232,239.927,-25711.254,-700.6082040816327,247.818,0.00391812,8.201,11.887,-1.00403,-0.67469,-0.50205,0.44674,-1.00403,-0.257400018
JZFPYUNJRRFVQU-VEWCPZSHNA-N,benzene,282.222,276.175,-28623.27800000001,-486.1866315789521,293.91200000000003,3.9177,8.419,9.478,-1.05989,0.56002,-0.55489,0.68283,-2.45052,-2.22184875
NSPMIYGKQJPBQR-UHFFFAOYSA-N,1-propanol,69.0658,95.9042,-16452.503999999997,-358.28679999999804,80.44590000000001,6.37356,10.358,13.515,0.0,-0.32777,-0.24801,0.32132,-0.43025,0.36660971
QIQXTHQIDYTFRH-LILDFLRNNA-N,"1,4-dioxane",284.481,389.064,-37157.136,-10.85087499999645,80.44590000000001,6.37356,10.015,12.54,-1.05692,-4.07515,-0.57144,0.64188,-1.05692,-0.841637508
SEEPANYCNGTZFQ-YHMJCDSINA-N,peg400,250.275,248.568,-26637.212000000003,983.7296470588226,267.58700000000005,9.35003,9.09,10.239,-1.966,-0.55087,-0.98503,2.55804,-1.5634899999999998,-1.173000002
ISWSIDIOOBJBQZ-UHFFFAOYNA-N,"2,2,4-trimethylpentane",94.1128,129.164,-18515.766,-572.4663999999939,267.58700000000005,9.35003,10.853,13.386,-0.47687,-0.65853,-0.47687,0.33969,-0.47687,-0.522878745
XVOYSCVBGLVSOL-UDYUCESTNA-N,toluene,169.152,163.313,-23842.954,-909.928,267.58700000000005,9.35003,8.791,11.262,-3.63278,-0.2283199999999999,-0.94037,2.49702,-1.635,-1.22184875
UFWIBTONFRDIAS-UHFFFAOYNA-N,dichloromethane,128.173,165.632,-19507.848,88.93503030303327,267.58700000000005,9.35003,10.131,8.926,0.0,-1.28108,-0.17572,0.16227,0.0,0.585634244
YXVFYQXJAXKLAK-UHFFFAOYNA-N,methanol,170.21,208.354,-23358.134000000005,-1016.2630000000026,267.58700000000005,9.35003,10.227,11.846,-0.5033,-1.35266,-0.5033,0.35767,-0.5033,-0.469800302
LNEPOXFFQSENCJ-UHFFFAOYNA-N,1-propanol,375.87,387.388,-36254.356,-1012.4242222222238,267.58700000000005,9.35003,9.44,11.721,-1.22768,-2.11099,-0.63032,0.60051,-1.84562,-1.369220529
CGIGDMFJXJATDK-QWOVJGMINA-N,water,357.793,353.939,-34914.38799999999,-245.39449999999488,405.457,3.90784,10.510000000000002,12.901,-2.08201,-0.70124,-0.61098,0.67003,-2.44947,-4.697000788
GKODDAXOSGGARJ-KZFATGLANA-N,"1,4-dioxane",165.123,173.269,-22211.144,-945.3192000000054,405.457,3.90784,7.866,11.436,-0.8349200000000001,0.53321,-0.44985,0.44963,-1.3969,-0.518622152
IIUZTXTZRGLYTI-LKUJNTHKNA-N,dimethylacetamide,354.787,336.091,-35050.122,252.6079999999929,405.457,3.90784,9.172,10.718,-2.65167,-0.7141500000000002,-0.63922,0.64179,-2.68568,-0.583088797
CDVNZMKTJIBBBV-WXRBYKJCNA-N,water,226.145,221.361,-26403.796,-1320.9513333333307,230.044,4.80612,9.781,15.137,-3.01939,-0.1478099999999999,-0.57812,0.88277,-1.25945,-2.522878745
YNPNZTXNASCQKK-UHFFFAOYNA-N,acetonitrile,178.233,209.472,-22909.108,-527.528166666667,230.044,4.80612,11.834,10.072,0.0,-1.64109,-0.17566,0.1684,0.0,-0.235823868
MWPLVEDNUUSJAV-UHFFFAOYNA-N,fluorobenzene,178.233,211.323,-21527.744,711.7744571428593,230.044,4.80612,8.413,8.171000000000001,0.0,-1.6131,-0.19626,0.16779,0.0,-1.149966742
PJANXHGTPQOBST-VAWYXSNFNA-N,methanol,180.249,233.288,-24226.424,-793.0577777777762,235.39,0.00861364,9.784,11.681,0.0,-1.9321,-0.19123,0.16376,0.0,-1.339045159
SEEPANYCNGTZFQ-YHMJCDSINA-N,thf,250.275,248.568,-26447.689999999995,1173.2516470588307,235.39,0.00861364,8.857999999999999,11.465,-1.96576,-0.55087,-0.98529,2.55826,-1.5631999999999997,-4.579545937
QCXJEYYXVJIFCE-QIQUEDJNNA-N,thf,179.175,206.959,-25463.498000000003,-976.8163999999996,235.39,0.00861364,8.556,11.955,-1.72159,0.1463599999999999,-0.62458,0.67777,-2.17928,-0.769551079
WBYWAXJHAXSJNI-KZFATGLANA-N,2-pentanol,148.161,186.426,-22774.050000000003,-514.5143750000061,235.39,0.00861364,9.4,12.644,-1.1076,-0.44696,-0.6235,0.68263,-1.1076,-0.168130226
JBKVHLHDHHXQEQ-QDQILVOLNA-N,1-butanol,113.159,149.513,-20467.558,-942.4447999999976,147.668,6.49048,11.194,12.944,-0.71405,-0.65733,-0.71405,0.61896,-1.15279,0.417429039
GVEPBJHOBDJJJI-UHFFFAOYNA-N,hexadecane,202.255,227.244,-22961.324,-397.40420408162754,243.073,0.255999,9.421,12.631,0.0,-1.55798,-0.15731,0.15892,0.0,-0.755722879
GJCOSYZMQJWQCA-UHFFFAOYNA-N,2-propanol,182.221,210.426,-22727.8,-719.4195121951234,243.073,0.255999,10.294,11.874,-0.36795,-1.33823,-0.36795,0.24932,-0.36795,-0.958607315
WPYMKLBDIGXBTP-FZOZFQFYNA-N,nonane,122.123,151.225,-20454.234,-723.2346500000021,243.073,0.255999,10.006,14.174,-1.04327,-0.1145299999999999,-0.55998,0.63942,-1.04327,-1.096910013
VHHHONWQHHHLTI-UHFFFAOYNA-N,"trans-1,4-dimethylcyclohexane",236.74,176.295,-21900.922,-40.679304347824655,243.073,0.255999,8.8,15.465,0.0,0.29541,-0.04926,0.14771,-0.29542,0.068926208
FZERHIULMFGESH-BGGKNDAXNA-N,hexane,135.165,175.279,-22792.968,-686.271833333336,243.073,0.255999,10.956,13.457,-0.56653,-0.6582499999999999,-0.62307,0.64809,-1.0346,-1.4488776021929823
AFPHTEQTJZKQAQ-BGGKNDAXNA-N,2-methyl-1-pentanol,167.121,179.6,-22991.516,-1174.648222222222,243.073,0.255999,8.426,13.7,-2.08201,0.10086,-0.5888,0.86182,-1.22019,0.034128236
YSSSPARMOAYJTE-UHFFFAOYNA-N,nitromethane,360.406,362.934,-35115.912,-101.51105882352569,243.073,0.255999,11.121,8.623,-2.68267,-1.11917,-0.49722,0.19083,-2.68267,-1.327902142
DAUAQNGYDSHRET-KZFATGLANA-N,1-hexanol,182.176,208.212,-26248.568,-1899.1518461538435,243.073,0.255999,9.364,11.96,-1.83518,-0.06203,-0.60907,0.66779,-1.83518,-1.308999997
SJEBAWHUJDUKQK-UHFFFAOYNA-N,2-butanol,236.27,258.581,-27258.932,-767.2237600000008,278.35900000000004,0.937389,8.397,13.115000000000002,-1.10893,-0.92682,-0.55912,0.56733,-1.10893,-1.347000005
MWPLVEDNUUSJAV-UHFFFAOYNA-N,acetonitrile,178.233,211.323,-21537.094,702.4244571428608,278.35900000000004,0.937389,11.316,9.581,0.0,-1.65109,-0.19885,0.17181,0.0,-1.795880017
DNKGZSOYWMQDTK-KZFATGLANA-N,1-pentanol,281.093,247.246,-27880.668,-2291.583999999996,278.35900000000004,0.937389,8.973,12.932,-0.9307,-0.6488999999999999,-0.63127,0.68645,-1.41575,0.407910987
YGSDEFSMJLZEOE-BGGKNDAXNA-N,toluene,138.123,157.307,-21241.066000000003,-94.25340000000506,152.038,3.15003,8.331999999999999,10.111,-1.53531,0.1448999999999999,-0.59766,0.6788,-1.53531,-0.958607315
SQNZJJAZBFDUTD-UHFFFAOYNA-N,ethanol,134.221,191.441,-22590.152,-121.50141935483772,152.038,3.15003,10.806,11.776,0.0,-2.35559,-0.49169,0.17148,0.0,-0.398740556
FJKROLUGYXJWQN-BGGKNDAXNA-N,1-heptanol,138.123,160.929,-22118.142,-1280.24871428571,152.038,3.15003,9.552,12.602,-1.58079,0.1336199999999999,-0.61533,0.6815,-1.58079,-0.085128182
SWJPEBQEEAHIGZ-UHFFFAOYNA-N,2-methyl-2-propanol,235.906,168.859,-20968.668,-1949.235176470589,166.765,0.00289801,9.847,12.848,0.0,-0.55018,-0.13944,0.1848,-0.1886499999999999,-0.466268571
VGEREEWJJVICBM-UHFFFAOYNA-N,1-butanol,274.273,297.076,-30616.678,-388.7635999999984,319.154,6.87719,9.935,12.047999999999998,-2.5265,-0.77044,-0.66617,0.68993,-2.5265,-0.435974566
ZWLPBLYKEWSWPD-BGGKNDAXNA-N,4-methyl-2-pentanol,136.15,166.478,-22035.57,-1027.4872499999983,319.154,6.87719,9.66,12.776,-1.10175,-0.4880599999999999,-0.60483,0.67645,-1.10175,0.1430148
DFXQXFGFOLXAPO-KZFATGLANA-N,2-pentanol,201.566,197.296,-24500.868,-1233.9866470588277,319.154,6.87719,8.738999999999999,13.508,-2.00814,0.21101,-0.5848,0.8629,-1.17267,-0.522878745
HEFNNWSXXWATRW-YHMJCDSINA-N,dmf,206.284,257.595,-29174.978000000003,-1179.3260645161354,319.154,6.87719,9.442,10.583,-1.09531,-1.97441,-0.60227,0.64106,-1.09531,0.110926242
LDCRTTXIJACKKU-ONEGZZNKNA-N,2-propanol,144.127,180.663,-26212.904,-2763.1513333333423,167.78,5.014189999999999,9.024,14.565,-1.91006,0.46211,-0.57962,0.65109,-1.91006,-1.15490196
ZEYHEAKUIGZSGI-BGGKNDAXNA-N,"1,4-dioxane",152.149,180.487,-23808.808,-2322.286068965517,178.485,4.7479,9.042,11.292,-1.42224,-0.0964599999999999,-0.57362,0.66108,-1.42224,-0.408935393
PCMORTLOPMLEFB-VENOTMPWNA-N,thf,224.213,251.758,-28999.004000000004,-233.77800000000207,178.485,4.7479,8.354,11.377,-2.31842,-0.1577700000000001,-0.61267,0.67607,-2.31842,-0.350682609
GVEPBJHOBDJJJI-UHFFFAOYNA-N,dmf,202.255,227.244,-23048.4,-484.4802040816248,243.057,0.376054,8.029,9.933,0.0,-1.64151,-0.15633,0.16707,0.0,-0.228042986
SKZKKFZAGNVIMN-FSHFIPFONA-N,"1,4-dioxane",137.138,161.144,-21200.482000000004,-701.2701176470582,243.057,0.376054,8.968,11.229,-1.11112,0.0640900000000001,-0.62982,0.63804,-1.65212,0.178401342
QQVIHTHCMHWDBS-FLKJISBTNA-N,2-propanol,166.133,182.549,-24353.784,-1674.015846153845,243.057,0.376054,9.313,13.591,-2.16662,0.7186600000000001,-0.604,0.67447,-2.16662,-1.22054028
YNPNZTXNASCQKK-UHFFFAOYNA-N,thf,178.233,209.472,-22824.208,-442.62816666666913,219.373,0.0666582,8.611999999999998,11.079,0.0,-1.62616,-0.17462,0.16677,0.0,0.450667401
CMWTZPSULFXXJA-GTNTULIANA-N,1-pentanol,230.263,261.97,-28927.906000000006,-1241.9617714285778,278.26,4.81427,9.358,11.523,-1.48866,-1.1015,-0.60093,0.642,-1.48866,-0.739261581
ALYNCZNDIQEVRV-BGGKNDAXNA-N,2-methyl-1-propanol,137.138,166.019,-21695.364,-794.4282758620684,159.956,5.436260000000001,9.592,12.121,-1.12061,0.02338,-0.62883,0.68434,-1.61802,-0.723538196
ZNNLBTZKUZBEKO-PLJOYGPPNA-N,water,494.004,494.856,-43136.594,-1237.459999999992,159.956,5.436260000000001,10.883,13.4,-3.7005,-1.86551,-0.98579,2.5924,-3.03559,-5.089999741
PVNIIMVLHYAWGP-FZOZFQFYNA-N,toluene,123.111,147.186,-21215.204,-975.5456363636332,138.973,4.10141,8.129999999999999,11.246,-1.03982,0.32272,-0.55702,0.66413,-1.39207,-0.7739211268404256
YGSDEFSMJLZEOE-BGGKNDAXNA-N,heptane,138.123,157.143,-21045.714,101.09859999999752,151.634,1.16792,10.094,13.733,-1.52304,0.1347299999999999,-0.54237,0.66855,-1.52304,-2.096910013
RXKNNAKAVAHBNK-UHFFFAOYNA-N,1-chlorobutane,140.098,154.652,-20161.178,1367.02568421053,151.634,1.16792,8.543999999999999,11.241,-1.58916,-0.753,-0.5918,0.86815,-0.10891,-1.853871964
WJFKNYWRSNBZNX-UHFFFAOYNA-N,2-methyl-1-butanol,199.27,217.299,-25096.332,-1849.7119999999995,151.634,1.16792,9.737,10.956,0.0,-1.22106,-0.39836,0.29763,-0.43135,-1.177554532
WQZGKKKJIJFFOK-GASJEMHNNA-N,ethanol,180.157,188.348,-25747.892,-1043.6232000000018,151.634,1.16792,10.891,13.831,-3.32216,0.41525,-0.57539,0.35958,-3.32216,-2.32827125
MWPLVEDNUUSJAV-UHFFFAOYNA-N,chlorobenzene,178.233,211.323,-21528.93,710.5884571428578,151.634,1.16792,8.155999999999999,8.129,0.0,-1.61452,-0.19632,0.16794,0.0,-1.013228266
DGBIGWXXNGSACT-GPQMBLKYNA-N,ethanol,315.715,292.626,-30676.475999999995,-624.07599999999,337.10200000000003,0.518048,8.685,12.798,-1.63015,-0.39059,-0.59839,0.87179,-1.63923,-1.795880017
GRWAIJBHBCCLGS-FZOZFQFYNA-N,ethanol,128.09,144.591,-21100.104,-1019.182499999999,337.10200000000003,0.518048,9.68,14.59,-1.03019,0.35251,-0.56191,0.64714,-1.47714,0.170700902
GPSDUZXPYCFOSQ-BGGKNDAXNA-N,1-hexanol,136.15,169.969,-21885.476,-691.8910857142873,165.016,3.40524,9.46,12.696000000000002,-1.08961,-0.4896899999999999,-0.6069,0.65779,-1.08961,0.16947792
YGSDEFSMJLZEOE-BGGKNDAXNA-N,benzene,138.123,157.247,-21111.428,35.38459999999759,151.939,1.21024,8.732000000000001,10.066,-1.53316,0.1361999999999999,-0.55013,0.67243,-1.53316,-1.184278516
ZUOUZKKEUPVFJK-UHFFFAOYNA-N,2-butanol,154.211,198.095,-22054.456,-1235.826814814813,151.939,1.21024,10.096,12.322,0.0,-1.60028,-0.17972,0.16325,0.0,-0.280475264
CKAPSXZOOQJIBF-UHFFFAOYNA-N,hexadecane,284.784,220.81,-23575.98,1948.0178571428623,151.939,1.21024,9.192,13.946,0.0,0.02407,-0.00408,0.00405,-0.02408,-1.635261445
SEEPANYCNGTZFQ-YHMJCDSINA-N,chloroform,250.275,249.048,-26768.424,852.5176470588267,151.939,1.21024,10.673,8.426,-1.94051,-0.5451900000000001,-0.9731,2.54312,-1.5350799999999998,-3.707963347
WPYMKLBDIGXBTP-FZOZFQFYNA-N,hexane,122.123,151.267,-20447.892,-716.8926500000016,144.24200000000002,2.83336,10.224,14.563,-1.0409,-0.1147499999999999,-0.55777,0.63822,-1.0409,-1.124938737
FJKROLUGYXJWQN-BGGKNDAXNA-N,1-butanol,138.123,161.02,-22352.348,-1514.4547142857082,144.24200000000002,2.83336,9.51,12.714,-1.58683,0.13373,-0.61896,0.68336,-1.58683,0.096562438
BMLIZLVNXIYGCK-WXRBYKJCNA-N,ethanol,198.652,226.327,-25193.934,-1298.1765517241363,229.728,7.38874,10.122,11.875,-0.67411,-0.43338,-0.67411,0.68272,-1.60529,-0.72
XNGIFLGASWRNHJ-FLKJISBTNA-N,water,166.133,180.478,-23560.88,-872.3731428571409,182.04,2.87758,10.448,14.52,-2.1306,0.66587,-0.58981,0.65999,-2.1306,-1.801350006
PVNIIMVLHYAWGP-FZOZFQFYNA-N,benzene,123.111,147.186,-21297.034000000003,-1057.3756363636385,182.04,2.87758,8.509,11.189,-1.03813,0.32092,-0.55534,0.6632,-1.38879,-1.087309200525424
UFWIBTONFRDIAS-UHFFFAOYNA-N,cyclohexane,128.173,165.583,-19424.02800000001,172.7550303030257,165.031,0.0019366,9.902,12.864,0.0,-1.22597,-0.16919,0.15523,0.0,0.132971692
BMLIZLVNXIYGCK-WXRBYKJCNA-N,1-pentanol,198.652,226.173,-25356.112,-1460.3545517241364,165.031,0.0019366,9.95,11.789,-0.66853,-0.43009,-0.66853,0.68248,-1.60143,-0.870000001
GUCYFKSBFREPBC-UHFFFAOYNA-N,cyclohexane,418.471,406.778,-41688.972,188.35200000000623,515.977,4.4790600000000005,9.814,13.459,-1.74016,-4.23616,-0.857,1.2649,-0.47526,-1.824100191
ZUOUZKKEUPVFJK-UHFFFAOYNA-N,2-methyl-2-propanol,154.211,198.095,-21988.546,-1169.9168148148165,515.977,4.4790600000000005,10.186,12.41,0.0,-1.59625,-0.17927,0.16289,0.0,-0.361164192
SJEBAWHUJDUKQK-UHFFFAOYNA-N,cyclohexane,236.27,258.853,-27113.506,-621.7977599999977,515.977,4.4790600000000005,8.792,14.207,-1.00911,-0.96226,-0.50832,0.53973,-1.00911,-1.434000004
WBYWAXJHAXSJNI-KZFATGLANA-N,trifluoroethanol,148.161,181.325,-22786.164,-526.6283750000039,182.608,2.48404,10.635,10.772,-1.10237,-0.4416099999999999,-0.60476,0.68796,-1.10237,-0.795880017
DAUAQNGYDSHRET-KZFATGLANA-N,2-methyl-2-propanol,182.176,208.105,-26870.01,-2520.5938461538462,182.608,2.48404,9.478,12.178,-1.83387,-0.0620899999999999,-0.60837,0.66746,-1.83387,-1.001000002
WNLRTRBMVRJNCN-AUDIXQRPNA-N,1-propanol,146.143,178.288,-23412.832,-406.3545263157903,178.382,4.21373,10.567,14.285,-2.22355,0.08757,-0.62402,0.67371,-2.22355,-0.430055232
OGJPXUAPXNRGGI-QWOVJGMINA-N,water,319.335,321.139,-32732.648,-221.2673333333369,178.382,4.21373,10.66,12.721,-1.78566,-0.4133799999999999,-0.65274,0.74486,-2.88179,-2.825500015
FDDDEECHVMSUSB-FSHFIPFONA-N,1-butanol,172.201,184.273,-23127.47,-716.9304444444497,178.382,4.21373,10.117,12.064,-1.98081,-0.9629,-0.99869,2.55452,-0.8339699999999998,-1.743456825
IPCSVZSSVZVIGE-HCKMINDGNA-N,hexane,256.428,354.778,-35548.056,-1945.8489999999947,377.543,2.23964,11.456,15.167000000000002,-1.05792,-3.55136,-0.561,0.63451,-1.05792,-0.708932292
RWCCWEUUXYIKHB-UHFFFAOYNA-N,heptane,182.221,220.061,-23886.596,-488.9559999999983,229.021,3.95276,10.19,14.072,-0.52038,-1.05689,-0.52038,0.5507,-0.52038,-0.532128585
BOCJQSFSGAZAPQ-UHFFFAOYNA-N,1-heptanol,242.661,236.9,-25939.626,-768.1566530612254,229.021,3.95276,8.288,12.838,-1.06943,-0.1293700000000001,-0.53879,0.56724,-1.13481,-1.991054191
KFIRODWJCYBBHY-QIQUEDJNNA-N,"1,4-dioxane",211.131,201.291,-25490.368,-876.2700000000004,212.308,7.75582,7.766,13.033,-2.83948,0.74475,-0.52316,0.82354,-2.01594,0.022444498
UJOBWOGCFQCDNV-UHFFFAOYNA-N,hexane,167.21,198.372,-21770.221999999994,-109.47159999999712,212.308,7.75582,10.661,12.811,0.0,-1.21396,-0.29659,0.27729,-0.29659,-2.962093653
VHHHONWQHHHLTI-UHFFFAOYNA-N,"1,2-dibromoethane",236.74,176.295,-21905.516,-45.27330434782198,212.308,7.75582,8.812,11.145,0.0,0.29005,-0.04844,0.14503,-0.29005,0.220051704
YLFRRPUBVUAHSR-RRPFGEQONA-N,cyclohexane,314.467,327.869,-33695.26999999999,-1502.0139999999883,212.308,7.75582,10.378,13.392,-1.13404,-3.54561,-0.63729,0.61202,-1.13404,-1.572575859