InChIkey,Solvent,MW,SASA,G_sol,DeltaG_sol,Volume,sol_dip,LsoluHsolv,LsolvHsolu,O_charges,C_charges,Most_neg,Most_pos,Het_charges,LogS
AVPYQKSLYISFPO-UHFFFAOYNA-N,thf,140.569,162.257,-20922.014,-1320.5204000000012,157.73100000000002,3.34541,8.434999999999999,12.378,-0.56198,-0.19768,-0.56198,0.44821,-0.6560900000000001,0.722845683
VPHHJAOJUJHJKD-KZFATGLANA-N,2-isopropoxyethanol,191.013,187.61,-23490.414,-1842.7409696969623,157.73100000000002,3.34541,8.563,11.843,-1.06393,0.23495,-0.58794,0.66307,-1.17316,-0.379451512
JYGXADMDTFJGBT-VWUMJDOONA-N,"1,2-propanediol",362.465,344.26,-36452.934,-548.6253999999972,157.73100000000002,3.34541,9.881,12.551,-2.88855,-2.59079,-0.64723,0.64412,-2.88855,-1.352609242
ROAXLGSFGIOFMH-UHFFFAOYNA-N,2-propanol,296.343,308.743,-29256.094,-443.1683333333276,330.292,0.604732,9.586,12.580000000000002,-0.5469200000000001,-0.97452,-0.39375,0.33346,-1.33007,-0.892795612
YLQWCDOCJODRMT-UHFFFAOYNA-N,benzene,180.206,204.757,-22246.294,-429.0102790697638,330.292,0.604732,8.266000000000002,9.758,-0.49968,-0.79945,-0.49968,0.57133,-0.49968,0.416640507
YNPNZTXNASCQKK-UHFFFAOYNA-N,1-pentanol,178.233,209.472,-22897.196000000004,-515.6161666666703,330.292,0.604732,9.405,11.537,0.0,-1.63056,-0.17495,0.16729,0.0,-0.643974143
MWPLVEDNUUSJAV-UHFFFAOYNA-N,propionitrile,178.233,211.323,-21536.504,703.0144571428609,221.704,0.00190296,10.909,9.555,0.0,-1.6486,-0.19857,0.17155,0.0,-1.395906827
BXRFQSNOROATLV-UHFFFAOYNA-N,methanol,151.121,171.369,-22017.102,569.4409999999989,221.704,0.00190296,8.456,13.335,-1.55643,-0.1968099999999999,-0.54143,0.84623,-0.7101999999999999,-20.0
WJUFSDZVCOTFON-UHFFFAOYNA-N,acetonitrile,166.176,199.901,-25130.49,-2131.941833333334,221.704,0.00190296,11.777,10.35,-1.34302,-0.32247,-0.58184,0.45266,-1.34302,0.75982082
BSYNRYMUTXBXSQ-WXRBYKJCNA-N,1-octanol,180.16,197.813,-25251.826,-1077.5441500000052,204.94,3.01189,9.251,13.084,-2.06396,0.3266300000000001,-0.59224,0.71433,-2.06396,-0.665035578
WBYWAXJHAXSJNI-KZFATGLANA-N,benzene,148.161,186.426,-23166.57,-907.0343750000028,181.094,3.87862,8.703000000000001,10.162,-1.05875,-0.4438399999999999,-0.5719,0.65758,-1.05875,-0.627762745
RYYVLZVUVIJVGH-UHFFFAOYNA-N,benzene,194.193,207.188,-25444.858,-1502.6956666666665,181.094,3.87862,9.041,9.72,-1.13011,0.3056599999999999,-0.56611,0.67358,-2.13769,-1.259637311
RJKGJBPXVHTNJL-UHFFFAOYNA-N,ethanol,173.171,192.048,-22438.234,-287.71887804878133,197.675,7.16574,8.865,12.242,-1.01737,-1.06754,-0.51045,0.85982,-0.1575499999999999,-0.343398293
POULHZVOKOAJMA-NDKGDYFDNA-N,1-butanol,200.32,274.077,-29854.716,-873.015999999996,197.675,7.16574,10.673,13.832999999999998,-1.11938,-2.49569,-0.61718,0.67131,-1.11938,0.340408163
WXTMDXOMEHJXQO-KZFATGLANA-N,water,154.122,166.679,-22228.098,57.28314285714441,197.675,7.16574,10.515,13.218,-2.06881,0.3881099999999999,-0.58907,0.68212,-2.06881,-0.109020403
WURBFLDFSFBTLW-UHFFFAOYNA-N,1-octanol,210.232,240.046,-25882.802,-872.156204081628,197.675,7.16574,8.697,12.89,-1.00455,-0.67472,-0.50231,0.44692,-1.00455,-0.916470096
PDMMFKSKQVNJMI-BLQWBTBKNA-N,octane,344.493,358.9,-36829.56,-1136.2160000000003,197.675,7.16574,10.837,14.081,-1.5702,-3.35432,-0.56549,0.64693,-1.5702,-1.145766634
WMKGGPCROCCUDY-PHEQNACWNA-N,thf,234.297,290.712,-28789.680000000008,-683.4686666666748,301.358,5.32029,8.376999999999999,11.969,-0.60317,-1.73738,-0.60317,0.61832,-0.60317,0.170261715
CPJSUEIXXCENMM-WXRBYKJCNA-N,methanol,179.218,222.751,-25989.996,64.0984285714294,301.358,5.32029,10.238,11.524,-1.08651,-0.94636,-0.66045,0.66366,-1.52288,-0.262554329
BGRJTUBHPOOWDU-QDYITYEQNA-N,acetone,341.424,350.514,-34632.47,-454.00742857142177,394.581,10.9256,9.5,9.495,-3.05144,-1.75088,-0.99755,2.55651,-2.22082,-1.558456273
KGCNHWXDPDPSBV-UHFFFAOYNA-N,nitromethane,171.583,186.257,-22687.312,-2076.3978461538427,394.581,10.9256,9.671,9.751,-1.04168,-0.7992199999999999,-0.52091,0.85884,-0.3406199999999999,0.522754771
MWPLVEDNUUSJAV-UHFFFAOYNA-N,1-pentanol,178.233,211.323,-21533.547999999995,705.9704571428629,221.709,0.00245386,8.887,11.047,0.0,-1.64084,-0.19803,0.17074,0.0,-2.0
KZTYYGOKRVBIMI-UHFFFAOYNA-N,"1,4-dioxane",218.27,231.928,-26188.24200000001,19.541916666661564,249.753,6.78713,9.205,11.817,-1.91954,-2.08581,-0.95982,2.42449,0.50495,-0.029506914
IJFXRHURBJZNAO-BGGKNDAXNA-N,acetone,138.123,160.556,-21802.306,-659.0626666666722,154.63299999999998,2.35031,9.144,10.248,-1.56505,0.10643,-0.59794,0.64807,-1.56505,0.176872651
YLQWCDOCJODRMT-UHFFFAOYNA-N,dichloromethane,180.206,204.757,-22294.520000000004,-477.2362790697698,212.591,5.13923,9.413,9.527,-0.54478,-0.8039000000000001,-0.54478,0.5929,-0.54478,0.605305046
DFXQXFGFOLXAPO-KZFATGLANA-N,ethanol,201.566,197.247,-24681.206,-1414.3246470588238,212.591,5.13923,8.858,13.5,-2.01831,0.2170599999999999,-0.58734,0.8644,-1.18229,-0.259637311
OTLNPYWUJOZPPA-BGGKNDAXNA-N,2-methyl-2-propanol,167.121,179.704,-23263.006,-1387.4477297297235,212.591,5.13923,8.354,13.777,-2.04737,0.0677499999999999,-0.57839,0.84198,-1.20539,-0.823908741
ISAOCJYIOMOJEB-UHFFFAOYNA-N,2-isopropoxyethanol,212.248,241.087,-26500.254,-828.4813157894714,263.724,5.7887,8.822,11.714,-1.10409,-1.05368,-0.56225,0.49985,-1.10409,-1.051352593
KZTYYGOKRVBIMI-UHFFFAOYNA-N,1-chlorooctane,218.27,232.297,-26402.124,-194.3400833333326,263.724,5.7887,10.124,11.006,-1.96103,-2.09429,-0.98064,2.44364,0.4826099999999999,-1.161250494
SKCNYHLTRZIINA-UHFFFAOYNA-N,chloroform,162.018,173.447,-21941.846000000005,-453.5974285714328,171.725,3.98891,10.477,9.417,0.0,-0.35633,-0.35141,0.20039,-0.57026,-0.093264711
GVEPBJHOBDJJJI-UHFFFAOYNA-N,1-propanol,202.255,227.244,-23071.596,-507.6762040816284,171.725,3.98891,8.928,11.605,0.0,-1.65046,-0.15692,0.16792,0.0,-1.053056729
BSYNRYMUTXBXSQ-WXRBYKJCNA-N,2-ethyl-1-hexanol,180.16,197.894,-24946.914,-772.6321500000049,171.725,3.98891,9.144,13.124,-2.05608,0.3262299999999999,-0.58835,0.71244,-2.05608,-0.716698771
ILUJQPXNXACGAN-BGGKNDAXNA-N,water,152.149,179.026,-23855.408000000003,-971.7357837837916,177.21300000000002,4.6165,10.965,13.528,-1.49293,-0.0735499999999999,-0.61727,0.70391,-1.49293,-1.552841969
MWPLVEDNUUSJAV-UHFFFAOYNA-N,trifluoroethanol,178.233,211.323,-21536.702,702.816457142857,221.702,0.00272513,9.921,9.273,0.0,-1.64826,-0.19858,0.17151,0.0,-2.940704202
LPNBBFKOUUSUDB-BGGKNDAXNA-N,chloroform,136.15,170.096,-22127.42,-1334.9163999999982,221.702,0.00272513,10.627,9.296,-1.08417,-0.4980599999999999,-0.59664,0.6633,-1.08417,-0.565323548
CDVNZMKTJIBBBV-WXRBYKJCNA-N,4-methyl-2-pentanol,226.145,221.462,-26832.182,-1749.3373333333293,221.702,0.00272513,8.395,14.161,-2.98609,-0.16132,-0.56826,0.87659,-1.23739,-0.95777488
JDCMOHAFGDQQJX-UHFFFAOYNA-N,methylcyclohexane,272.097,214.933,-25503.674000000003,135.04819999999745,228.349,0.000947538,8.501,14.086,0.0,0.61391,-0.08279,0.11863,-0.6139,-0.251533603
UFWIBTONFRDIAS-UHFFFAOYNA-N,"1,2-dibromoethane",128.173,165.632,-19447.87,148.91303030303243,228.349,0.000947538,9.833,8.343,0.0,-1.26498,-0.17376,0.16025,0.0,0.490035088
ONUFSRWQCKNVSL-UHFFFAOYNA-N,octane,334.116,260.826,-29329.130000000005,90.2037999999884,228.349,0.000947538,9.421,14.948,0.0,0.7598,-0.09544,0.16355,-0.7598,-0.174807813
XMTQQYYKAHVGBJ-XWKXFZRBNA-N,"1,2-dichloroethane",233.097,243.108,-26907.332,-1922.6404800000016,228.349,0.000947538,10.136,9.552,-0.65575,-0.2631599999999999,-0.65575,0.68032,-1.62549,-1.269999997
AYIRNRDRBQJXIF-SVGYMEAUNA-N,2-propanol,358.211,325.284,-36450.85,-2256.4359999999942,228.349,0.000947538,9.715,13.185,-3.19811,-1.4627800000000002,-1.00568,2.50359,-1.49169,-1.653436265
PZPZDEIASIKHPY-UHFFFAOYNA-N,dmf,242.234,256.132,-26998.82,-276.69533333333675,228.349,0.000947538,7.965000000000001,10.757,-1.63878,-0.72677,-0.58324,0.87842,-1.23049,0.005842273
JZFDKGFWNSQAHU-GPQMBLKYNA-N,ethanol,254.285,281.36,-29929.146,-522.4627999999939,309.20399999999995,5.9807,9.417000000000002,12.847,-1.6394700000000002,-0.89501,-0.58911,0.65739,-1.6394700000000002,0.223102349
CKAPSXZOOQJIBF-UHFFFAOYNA-N,heptane,284.784,220.81,-23577.268,1946.7298571428616,309.20399999999995,5.9807,9.505,14.063,0.0,0.02234,-0.00378,0.00378,-0.02234,-1.672028376
DWMREKMVXIFPFM-RWWBHRBBNA-N,toluene,351.394,321.969,-33319.814,-1286.7760833333305,358.56300000000005,6.95204,7.805999999999999,9.033,-2.89046,-0.90207,-0.94689,2.46554,-1.69108,-2.793708554
SKZKKFZAGNVIMN-FSHFIPFONA-N,1-hexanol,137.138,160.978,-21283.264000000003,-784.0521176470575,156.553,6.49041,9.577,12.482,-1.18883,0.0583599999999999,-0.68188,0.64155,-1.71006,-0.581698709
WPYMKLBDIGXBTP-FZOZFQFYNA-N,3-methyl-1-butanol,122.123,151.267,-20837.828,-1106.828650000003,156.553,6.49041,9.331,13.149,-1.09385,-0.1096099999999999,-0.61008,0.66434,-1.09385,0.158362492
WNLRTRBMVRJNCN-AUDIXQRPNA-N,water,146.143,184.571,-23742.418,-735.940526315786,177.172,2.77781,11.916,15.562,-2.23029,0.08408,-0.62636,0.67299,-2.23029,-0.805004188
BXRFQSNOROATLV-UHFFFAOYNA-N,acetonitrile,151.121,171.355,-22002.224,584.3189999999959,167.055,4.6856100000000005,10.735,11.879,-1.55777,-0.19615,-0.54211,0.84657,-0.7111999999999999,0.046974629
KDYFGRWQOYBRFD-AOTPWWKUNA-N,ethanol,118.089,140.94,-20975.114,-181.0625714285743,167.055,4.6856100000000005,10.388000000000002,14.661,-2.17174,0.5993900000000001,-0.60446,0.66166,-2.17174,-0.483723064
JDCMOHAFGDQQJX-UHFFFAOYNA-N,chloroform,272.097,214.933,-25519.336000000003,119.3861999999972,228.338,0.00208222,9.252,9.085,0.0,0.64718,-0.08712,0.12248,-0.64718,0.419232128
YVUQSNJEYSNKRX-VJSLDGLSNA-N,1-hexanol,461.553,472.341,-39420.698,-360.6951249999984,228.338,0.00208222,9.964,11.528,-0.64606,-2.63555,-0.64606,0.63254,-2.10114,-1.579878376
BBEAQIROQSPTKN-UHFFFAOYNA-N,acetophenone,202.255,222.477,-22117.99,-9.881014925369527,228.338,0.00208222,8.532,7.664000000000001,0.0,-1.66446,-0.17855,0.16799,0.0,-0.037587539
LDHQCZJRKDOVOX-GSMIJIFMNA-N,water,86.0902,125.316,-19290.48,-238.0689999999995,108.875,4.9339,11.305,14.832,-1.13483,-0.16037,-0.64663,0.69973,-1.13483,0.009340889
QUEKGYQTRJVEQC-KZFATGLANA-N,2-methyl-1-propanol,201.566,196.512,-24528.132,-1020.2506086956492,108.875,4.9339,8.312,13.548,-2.04859,0.2503499999999999,-0.57603,0.86748,-1.21993,-0.200659451
FAOHQGXEASKQDL-AHPDCHJINA-N,chloroform,215.685,249.184,-28782.74399999999,-2753.7225454545405,108.875,4.9339,10.498,9.017,0.0,-0.1440099999999999,-0.55075,0.48973,-2.33604,-0.617982957
IIUZTXTZRGLYTI-LKUJNTHKNA-N,peg400,354.787,336.18,-36671.514,-1368.7839999999997,395.863,11.6818,8.727,10.663,-2.60664,-0.7308199999999998,-0.64266,0.63285,-2.63865,-0.162
WURBFLDFSFBTLW-UHFFFAOYNA-N,"3,7-dimethyl-1-octanol",210.232,239.808,-25885.548,-874.9022040816308,247.703,0.0018849,8.577000000000002,12.944,-0.99802,-0.67572,-0.49903,0.44465,-0.99802,-1.044687107
PJANXHGTPQOBST-VAWYXSNFNA-N,p-xylene,180.249,233.278,-24116.276,-682.9097777777788,235.521,0.00225258,8.331000000000001,9.288,0.0,-1.84165,-0.185,0.15616,0.0,-0.295156753
ACWBQPMHZXGDFX-XGLYSIDGNA-N,acetonitrile,435.525,418.166,-41316.41,-557.752800000002,235.521,0.00225258,11.919,10.849,-1.74594,-2.37672,-0.65253,0.64144,-2.6968,-0.555043456
GJCOSYZMQJWQCA-UHFFFAOYNA-N,hexane,182.221,210.426,-22604.31,-595.9295121951218,218.229,1.66053,10.906,13.111,-0.34716,-1.26953,-0.34716,0.26228,-0.34716,-0.638272164
HLNDPICGHQGWSU-UHFFFAOYNA-N,toluene,330.337,347.748,-36878.96400000001,-1138.7215000000142,218.229,1.66053,8.365,9.534,-2.74853,-0.77637,-0.63059,0.60828,-2.74853,-0.7739211268404256
BSYNRYMUTXBXSQ-WXRBYKJCNA-N,acetonitrile,180.16,198.544,-25262.874,-1088.592150000004,206.149,4.2566,11.611,11.608,-2.08288,0.32708,-0.61205,0.71573,-2.08288,-0.474446902
GJCOSYZMQJWQCA-UHFFFAOYNA-N,"2,2,4-trimethylpentane",182.221,210.426,-22572.076,-563.695512195125,206.149,4.2566,10.683,12.874,-0.34716,-1.26952,-0.34716,0.26228,-0.34716,-0.823908741
VPHHJAOJUJHJKD-KZFATGLANA-N,2-ethoxyethanol,191.013,187.66,-24556.98,-2909.306969696961,189.242,0.293942,8.376999999999999,12.216,-1.0666,0.2375099999999999,-0.59043,0.6648,-1.1777,-0.349071296
JTEGQNOMFQHVDC-IRNSGEEPNA-N,water,229.253,234.024,-26301.172,-540.5663999999888,189.242,0.293942,11.08,13.536,-1.69563,0.9145,-0.65322,0.71649,-3.34804,0.568577518
ZEYHEAKUIGZSGI-BGGKNDAXNA-N,1-hexanol,152.149,180.521,-23363.908,-1877.386068965516,178.095,3.62555,9.579,12.521,-1.48271,-0.0968699999999999,-0.61942,0.68291,-1.48271,-1.0
ILUJQPXNXACGAN-BGGKNDAXNA-N,1-octanol,152.149,178.697,-23620.332,-736.6597837837871,178.095,3.62555,9.625,12.353000000000002,-1.4710100000000002,-0.0748599999999999,-0.60179,0.69742,-1.4710100000000002,-0.522878745
MNIPYSSQXLZQLJ-UYBDAZJANA-N,chloroform,354.189,320.785,-33793.116,-697.5469999999987,384.689,1.11954,10.813,8.11,-1.97437,-0.13185,-0.56606,0.66423,-2.52832,-1.022276395
WURBFLDFSFBTLW-UHFFFAOYNA-N,toluene,210.232,239.885,-26372.29,-1361.6442040816328,384.689,1.11954,7.704999999999999,10.482,-0.95659,-0.68218,-0.4783,0.43003,-0.95659,0.1
BXAOUWIVXLQYOZ-SPEPDGBUNA-N,benzene,443.542,446.341,-45130.23800000001,-544.8718666666828,567.002,1.67975,9.46,9.962,-2.5271,-2.16745,-0.60888,0.72809,-3.83001,-2.22184875
FFGPTBGBLSHEPO-ZHLVXTBQNA-N,trifluoroethanol,236.273,250.059,-28532.784,-2677.628999999997,276.277,5.47822,10.681,9.943,-0.6771,-0.67314,-0.6771,0.69455,-1.61376,-0.686970713
YRHRIQCWCFGUEQ-UHFFFAOYNA-N,2-methyl-2-propanol,212.266,221.762,-24665.708,-1472.617178571429,236.332,3.13348,9.164,12.138,-0.58834,-0.79606,-0.58834,0.58994,-0.5993499999999999,-2.160276341
MTSJLRXXXJHLDI-VEORKLDJNA-N,acetonitrile,501.578,481.252,-46249.826,-868.734000000004,236.332,3.13348,12.078,10.428,-3.39397,-1.89791,-0.64744,0.73449,-4.6808,-1.397940009
RXKNNAKAVAHBNK-UHFFFAOYNA-N,cyclohexane,140.098,154.652,-20082.886,1445.3176842105277,147.221,1.33157,8.555,14.402,-1.48606,-0.81206,-0.53239,0.84901,-0.0247,-3.437707136
CDPKJZJVTHSESZ-KZFATGLANA-N,acetonitrile,170.595,190.74,-23166.564,-1307.2523333333338,147.221,1.33157,12.419,11.014,-1.10364,-0.3028999999999999,-0.60763,0.68345,-1.21218,0.204393561
RZVAJINKPMORJF-BGGKNDAXNA-N,2-isopropoxyethanol,151.165,185.345,-23402.116,-482.926684210528,181.626,7.0698300000000005,9.599,10.638000000000002,-1.13862,-0.42821,-0.6408,0.66102,-1.57919,-0.11906068
YLQWCDOCJODRMT-UHFFFAOYNA-N,hexane,180.206,204.757,-22234.514,-417.2302790697613,212.594,4.20018,9.641,13.755,-0.49039,-0.79785,-0.49039,0.56657,-0.49039,-1.0
RINCXYDBBGOEEQ-UHFFFAOYNA-N,acetone,100.074,120.746,-18396.156,-653.3575000000019,212.594,4.20018,9.54,12.426,-1.44227,0.54566,-0.50581,0.68686,-1.44227,0.456902908
JDCMOHAFGDQQJX-UHFFFAOYNA-N,"1,2-dichloroethane",272.097,214.933,-25525.278,113.44419999999808,228.331,0.00285143,8.729999999999999,10.177,0.0,0.66461,-0.08936,0.12459,-0.66461,0.2205219
AFPHTEQTJZKQAQ-BGGKNDAXNA-N,3-methyl-1-butanol,167.121,179.6,-23019.78,-1202.912222222225,228.331,0.00285143,8.414,13.813,-2.08716,0.10332,-0.59102,0.863,-1.22416,0.121577404
AVPYQKSLYISFPO-UHFFFAOYNA-N,chloroform,140.569,162.257,-20844.730000000003,-1243.2364000000089,228.331,0.00285143,10.239999999999998,9.336,-0.5384,-0.20795,-0.5384,0.43618,-0.62867,0.557505536
ALYNCZNDIQEVRV-BGGKNDAXNA-N,chlorobenzene,137.138,165.83,-21817.186,-916.2502758620648,228.331,0.00285143,8.949,9.112,-1.10232,0.0262499999999999,-0.61026,0.67623,-1.59778,-2.301029996
RXKNNAKAVAHBNK-UHFFFAOYNA-N,1-hexanol,140.098,154.652,-20191.22,1336.9836842105287,147.278,0.903247,8.350999999999999,13.093,-1.61193,-0.7386,-0.60557,0.87209,-0.12855,-1.634512015
YBZQRYWKYBZZNT-IAUQMDSZNA-N,water,113.159,155.691,-21996.286,-1496.4703333333346,155.828,6.48018,12.573,14.66,-0.70468,-0.93974,-0.70468,0.65253,-1.23874,-0.696803943
KZNICNPSHKQLFF-JSWHHWTPNA-N,ethanol,99.089,124.011,-18349.954,-410.94233333333614,155.828,6.48018,10.006,14.096,-1.17999,0.4815699999999999,-0.59029,0.6405,-1.65791,-0.261646534
RZVAJINKPMORJF-BGGKNDAXNA-N,1-propanol,151.165,185.19,-24325.692000000003,-1406.502684210529,181.58,7.28684,10.04,11.642,-1.15391,-0.4301399999999999,-0.65227,0.66329,-1.59133,-0.141234262
RXKNNAKAVAHBNK-UHFFFAOYNA-N,heptane,140.098,154.652,-20086.25,1441.95368421053,181.58,7.28684,8.975,14.323,-1.48036,-0.81504,-0.52924,0.84788,-0.0202600000000001,-3.590066877
BBYDXOIZLAWGSL-BGGKNDAXNA-N,toluene,140.114,158.548,-21364.48,-763.3820000000014,152.857,1.72478,8.291,10.903,-1.04756,0.12751,-0.56442,0.65281,-1.20269,-1.188375355
PEQHIRFAKIASBK-UHFFFAOYNA-N,water,320.433,334.913,-32594.507999999994,-1045.1677999999883,152.857,1.72478,11.701,13.4,0.0,-3.20184,-0.18922,0.16323,0.0,-7.800000875
RWCCWEUUXYIKHB-UHFFFAOYNA-N,nonane,182.221,219.802,-23881.226,-483.58600000000297,228.743,3.98928,9.967,14.013,-0.52312,-1.0573400000000002,-0.52312,0.55229,-0.52312,-0.467700082
NIHNNTQXNPWCJQ-UHFFFAOYNA-N,butyronitrile,166.222,200.685,-21638.44,-236.3090000000011,207.018,0.703985,11.577,10.319,0.0,-1.66707,-0.32634,0.18475,0.0,-0.036682017
ZEYHEAKUIGZSGI-BGGKNDAXNA-N,2-ethoxyethanol,152.149,180.427,-23459.182,-1972.660068965517,207.018,0.703985,8.950999999999999,11.822,-1.4806,-0.09707,-0.61702,0.68206,-1.4806,-0.382985764
AZQWKYJCGOJGHM-UHFFFAOYNA-N,octane,108.096,134.91,-19276.264,-432.4099999999962,207.018,0.703985,8.687,14.827000000000002,-0.92111,0.14208,-0.46056,0.52296,-0.92111,-1.329577412
OGJPXUAPXNRGGI-QWOVJGMINA-N,peg400,319.335,320.981,-33169.228,-657.8473333333386,207.018,0.703985,8.692,9.884,-1.74941,-0.4137799999999999,-0.63036,0.7376,-2.84966,-1.694999992
HOKCUULFCASAQT-OLAIDOCJNA-N,thf,472.669,497.039,-46280.006,-1390.3663333333243,207.018,0.703985,8.483999999999998,11.055,-1.27904,-4.32243,-0.65943,0.63992,-2.19345,-0.403437701
RXKNNAKAVAHBNK-UHFFFAOYNA-N,benzene,140.098,154.652,-20093.854,1434.3496842105303,207.018,0.703985,7.629000000000001,10.637,-1.50101,-0.80409,-0.54071,0.85194,-0.0364399999999999,-1.137868621
FJKROLUGYXJWQN-BGGKNDAXNA-N,hexane,138.123,160.929,-21844.794,-1006.9007142857116,207.018,0.703985,10.27,14.204999999999998,-1.5113,0.1243,-0.56666,0.65736,-1.5113,-1.4488776021929823
QFOHBWFCKVYLES-UHFFFAOYNA-N,1-decanol,194.23,235.607,-27367.484,-1297.989076923077,207.018,0.703985,9.696000000000002,12.678,-1.50665,-0.91119,-0.60786,0.6836,-1.50665,0.196469101
DTUOTSLAFJCQHN-UHFFFAOYNA-N,ethanol,277.074,223.335,-26613.658,-991.739999999998,240.216,9.10118,8.329,12.659,-1.51845,0.64326,-0.53132,0.72477,-1.57838,-2.781038811
ISAOCJYIOMOJEB-UHFFFAOYNA-N,2-propanol,212.248,245.541,-26563.718000000004,-891.9453157894786,260.166,2.26687,9.564,12.968,-1.09218,-1.07961,-0.54781,0.5234,-1.09218,-1.622979932
LXCFILQKKLGQFO-UHFFFAOYNA-N,1-butanol,152.149,181.297,-22947.86,-1350.0202222222251,260.166,2.26687,9.575,12.665,-1.49417,-0.09556,-0.61189,0.68264,-1.49417,0.181263323
KDYFGRWQOYBRFD-AOTPWWKUNA-N,dmso,118.089,141.259,-20822.544,-28.49257142857823,260.166,2.26687,8.331999999999999,12.644,-2.15181,0.58676,-0.5974,0.65352,-2.15181,0.355145414
FFGPTBGBLSHEPO-ZHLVXTBQNA-N,ethanol,236.273,250.161,-26904.152,-1048.9969999999994,277.19100000000003,5.45191,9.82,11.805,-0.6758,-0.67252,-0.6758,0.69448,-1.61329,-0.968226121
QVPPQDAPAFWTCK-DZQFSFFNNA-N,ethanol,306.769,317.545,-31319.172,-1420.0472000000009,277.19100000000003,5.45191,9.262,12.061,-0.58974,0.20737,-0.70153,0.58873,-2.68669,-1.949912437
RZVAJINKPMORJF-BGGKNDAXNA-N,acetonitrile,151.165,185.242,-23561.822,-642.6326842105263,181.454,4.06187,12.457,10.175,-1.16125,-0.43233,-0.65849,0.66413,-1.59677,-0.82197314
YRHRIQCWCFGUEQ-UHFFFAOYNA-N,methanol,212.266,221.762,-25045.424000000003,-1852.333178571429,181.454,4.06187,9.193,11.84,-0.59659,-0.79479,-0.59659,0.59376,-0.6100399999999999,-2.214267241
IEDVJHCEMCRBQM-CLRGVMNRNA-N,1-butanol,290.321,309.578,-32598.707999999995,-1129.439777777774,344.3,5.204269999999999,9.612,12.238,-1.12637,-0.30473,-0.55586,0.43249,-3.1727,-2.066971565
VZCYOOQTPOCHFL-KHGLRPAFNA-N,2-propanol,116.073,139.716,-21263.784,-1102.691999999999,344.3,5.204269999999999,8.908,14.911,-2.08511,0.92294,-0.57587,0.65113,-2.08511,-0.56885125
OTLNPYWUJOZPPA-BGGKNDAXNA-N,1-decanol,167.121,179.815,-23494.936,-1619.3777297297274,176.952,4.4237,8.295000000000002,13.63,-2.03443,0.0616699999999999,-0.57226,0.83874,-1.19569,-1.301029996