InChIkey,Solvent,MW,SASA,G_sol,DeltaG_sol,Volume,sol_dip,LsoluHsolv,LsolvHsolu,O_charges,C_charges,Most_neg,Most_pos,Het_charges,LogS
SKZKKFZAGNVIMN-FSHFIPFONA-N,2-propanol,137.138,161.144,-21233.234,-734.0221176470513,563.406,6.24207,9.78,12.614,-1.19474,0.0581399999999999,-0.68602,0.64176,-1.7133699999999998,-0.366531544
KFIRODWJCYBBHY-QIQUEDJNNA-N,acetone,211.131,202.098,-25475.744,-861.6460000000006,212.626,7.81579,8.25,11.845,-2.98082,0.7971900000000001,-0.56763,0.84428,-2.13654,-0.111982301
SWJPEBQEEAHIGZ-UHFFFAOYNA-N,ethylbenzene,235.906,168.859,-20954.792,-1935.3591764705889,166.74800000000002,0.0013558799999999,8.704,10.182,0.0,-0.53958,-0.14032,0.17876,-0.17527,0.293090323
VLYWMPOKSSWJAL-YAQRNVERNA-N,benzene,280.301,270.411,-28713.906000000003,564.3785833333313,166.74800000000002,0.0013558799999999,8.423,9.678,-2.19397,-1.01521,-0.93867,2.5099,-1.34986,-3.144209545
GPSDUZXPYCFOSQ-BGGKNDAXNA-N,1-tert-butoxy-2-propanol,136.15,170.075,-21806.558000000005,-612.9730857142895,164.97500000000002,3.32104,9.025,11.684,-1.08262,-0.48897,-0.59963,0.65443,-1.08262,0.202411123
PYZRQGJRPPTADH-KGJHZMDYNA-N,ethanol,256.094,241.738,-27395.078,-1808.0480000000025,164.97500000000002,3.32104,8.947000000000001,12.841,0.0,0.2279099999999999,-0.53111,0.37711,-1.91842,-1.854492829
LPEPZBJOKDYZAD-LILDFLRNNA-N,toluene,281.234,279.463,-29001.448,-683.3553333333293,298.701,3.47766,8.277999999999999,9.332,-1.07273,0.02688,-0.56333,0.665,-2.04844,-0.576845616
BBEAQIROQSPTKN-UHFFFAOYNA-N,propionitrile,202.255,222.477,-22121.958,-13.849014925373922,298.701,3.47766,10.884,9.565,0.0,-1.67055,-0.17873,0.1686,0.0,-0.458926586
HEWGVSGLMQJYHJ-UHFFFAOYNA-N,"1,4-dioxane",288.048,229.267,-26510.198,91.94966666666733,298.701,3.47766,7.545,11.725,-0.91279,0.6959900000000001,-0.45641,0.59528,-1.57769,-1.729940329
BSYNRYMUTXBXSQ-WXRBYKJCNA-N,2-methyl-2-butanol,180.16,198.157,-25473.894,-1299.612150000008,205.74,3.95096,9.182,13.38,-2.04184,0.31839,-0.59197,0.7048,-2.04184,-0.133712661
SEEPANYCNGTZFQ-YHMJCDSINA-N,cyclohexane,250.275,248.929,-26732.484,888.4576470588254,205.74,3.95096,9.916,13.262,-1.89434,-0.54171,-0.94951,2.51157,-1.479,-7.097169038
BSYNRYMUTXBXSQ-WXRBYKJCNA-N,water,180.16,198.006,-25217.378,-1043.0961500000049,205.74,3.95096,10.598,14.247,-2.08935,0.3320799999999999,-0.60368,0.72125,-2.08935,-1.639406347
DWMREKMVXIFPFM-RWWBHRBBNA-N,cyclohexane,351.394,322.053,-33235.89599999999,-1202.858083333325,359.062,6.83862,9.126,12.712,-2.87522,-0.90049,-0.94075,2.45999,-1.68004,-4.376282544
PJANXHGTPQOBST-VAWYXSNFNA-N,1-heptanol,180.249,233.31,-24227.76,-794.3937777777792,359.062,6.83862,9.662,11.656,0.0,-1.91631,-0.19014,0.16236,0.0,-1.113904369
DBUKZZKLTUXIQM-UHFFFAOYNA-N,butanone,362.335,373.117,-36784.112,1443.775499999996,400.484,2.63015,8.92,9.922,-3.66703,0.20883,-0.59746,0.66656,-3.66703,-0.7329897903157895
SKCNYHLTRZIINA-UHFFFAOYNA-N,ethanol,162.018,173.36,-22024.086000000003,-535.8374285714308,400.484,2.63015,9.66,13.008,0.0,-0.34023,-0.37437,0.20491,-0.61308,-0.841345881
XMTQQYYKAHVGBJ-XWKXFZRBNA-N,chlorocyclohexane,233.097,243.385,-26949.026,-1964.334480000001,400.484,2.63015,9.706,10.309,-0.64679,-0.2606699999999999,-0.64679,0.6793,-1.61687,-1.926686153
FOCAUTSVDIKZOP-JLSKMEETNA-N,water,94.4975,111.093,-18506.792,-1873.936333333335,95.8474,3.60684,11.719,15.27,-1.07094,0.34344,-0.58753,0.66078,-1.17404,0.944042925
JZFDKGFWNSQAHU-GPQMBLKYNA-N,dmf,254.285,281.091,-30023.326000000005,-616.6427999999978,308.27900000000005,5.96542,8.355,11.081,-1.62518,-0.89619,-0.58224,0.65417,-1.62518,0.485530374
DKYWVDODHFEZIM-GPQMBLKYNA-N,1-hexanol,254.285,286.244,-29945.49,-1115.5782222222151,311.969,7.272340000000001,9.27,12.922,-1.6662,-0.90628,-0.59689,0.63971,-1.6662,-0.210169072
IPCSVZSSVZVIGE-HCKMINDGNA-N,acetone,256.428,358.575,-34392.874,-790.666999999994,311.969,7.272340000000001,10.535,11.434,-1.11801,-3.58657,-0.61812,0.66588,-1.11801,-0.555617568
FPWNLURCHDRMHC-UHFFFAOYNA-N,1-propanol,188.656,217.991,-23367.184,-1402.447199999995,311.969,7.272340000000001,9.842,12.129,0.0,-1.39671,-0.17837,0.1799,-0.11051,-0.259637311
UFWIBTONFRDIAS-UHFFFAOYNA-N,methanol,128.173,165.632,-19473.297999999995,123.48503030303618,311.969,7.272340000000001,9.692,11.607,0.0,-1.296,-0.17757,0.16426,0.0,-0.26760624
LXCFILQKKLGQFO-UHFFFAOYNA-N,water,152.149,181.297,-22952.564,-1354.724222222223,311.969,7.272340000000001,11.0,13.754,-1.50329,-0.09616,-0.61917,0.68563,-1.50329,-1.838100383
KRKNYBCHXYNGOX-CUNNJMNPNA-N,water,192.125,186.098,-25454.120000000003,-298.94781818181946,311.969,7.272340000000001,11.224,15.54,-3.74384,1.31429,-0.60604,0.69135,-3.74384,0.685890704
RZVAJINKPMORJF-BGGKNDAXNA-N,acetone,151.165,185.102,-22889.884,29.305315789471933,181.261,4.02097,9.916,9.465,-1.15565,-0.43104,-0.65446,0.66354,-1.59361,-0.243181353
PEQHIRFAKIASBK-UHFFFAOYNA-N,p-xylene,320.433,334.776,-31721.932,-172.59179999999105,402.47,0.00236546,8.996,9.806,0.0,-3.08124,-0.18242,0.15918,0.0,-2.03
GVEPBJHOBDJJJI-UHFFFAOYNA-N,3-methyl-1-butanol,202.255,227.244,-23058.806,-494.8862040816239,402.47,0.00236546,8.783999999999999,11.786,0.0,-1.64547,-0.15659,0.16745,0.0,-1.10328014
UJOBWOGCFQCDNV-UHFFFAOYNA-N,chlorocyclohexane,167.21,198.372,-21917.336000000003,-256.5856000000058,402.47,0.00236546,9.877,9.688,0.0,-1.28884,-0.29021,0.29261,-0.29021,-1.617126261
GVIJJXMXTUZIOD-UHFFFAOYNA-N,cyclohexane,216.315,223.495,-23372.646,-374.0083157894733,239.592,1.67935,10.042,12.658,0.0,-1.27735,-0.13935,0.16844,-0.03393,-1.259349287
XVOYSCVBGLVSOL-UDYUCESTNA-N,methanol,169.152,165.089,-23893.166,-960.140000000003,167.84099999999998,3.08994,10.261,13.362,-3.74547,-0.1960399999999999,-0.96635,2.53132,-1.73826,0.614878899
WJFKNYWRSNBZNX-UHFFFAOYNA-N,1-heptanol,199.27,217.299,-25072.462000000003,-1825.842000000004,167.84099999999998,3.08994,9.895,10.845,0.0,-1.21936,-0.39831,0.29696,-0.42984,-0.908129
YNPNZTXNASCQKK-UHFFFAOYNA-N,1-propanol,178.233,209.472,-22828.57,-446.9901666666665,167.84099999999998,3.08994,9.408,11.54,0.0,-1.63468,-0.17524,0.16769,0.0,-0.754515375
LXCFILQKKLGQFO-UHFFFAOYNA-N,dimethylacetamide,152.149,181.408,-22987.91,-1390.0702222222244,167.84099999999998,3.08994,9.483,10.94,-1.50041,-0.09605,-0.61691,0.68474,-1.50041,0.67935806
VHHHONWQHHHLTI-UHFFFAOYNA-N,ethylbenzene,236.74,176.295,-21901.204,-40.9613043478239,167.84099999999998,3.08994,7.537,12.035,0.0,0.29402,-0.04903,0.14701,-0.29403,0.234644544
RGGYLRDGJAJICY-ZYMSVLFVNA-N,ethanol,504.627,505.996,-44572.27799999999,-1380.391499999998,628.4490000000001,5.63377,9.377,11.723,-1.49411,-3.12216,-0.64269,0.65424,-2.31456,-2.0
QECIGCMPORCORE-UHFFFAOYNA-N,dmf,206.243,230.225,-24811.882000000005,-915.0468000000074,628.4490000000001,5.63377,7.972,10.136,-0.57627,-1.04586,-0.57627,0.45091,-0.57627,0.096910013
IEDVJHCEMCRBQM-CLRGVMNRNA-N,2-propanol,290.321,308.011,-31860.326,-391.0577777777799,628.4490000000001,5.63377,9.823,12.375,-1.13476,-0.29909,-0.5565,0.43255,-3.18458,-2.27044611
WPYMKLBDIGXBTP-FZOZFQFYNA-N,thf,122.123,151.186,-20934.626,-1203.6266499999983,628.4490000000001,5.63377,8.68,12.513,-1.09167,-0.11008,-0.60777,0.6634,-1.09167,0.524055171
WLJVNTCWHIRURA-PSPNOWEWNA-N,water,160.169,195.53,-24711.428,-216.11719999999696,628.4490000000001,5.63377,11.951,15.387999999999998,-2.23682,-0.1625000000000001,-0.62862,0.67726,-2.23682,-0.251919527
MWPLVEDNUUSJAV-UHFFFAOYNA-N,1-propanol,178.233,211.323,-21535.122000000003,704.3964571428551,628.4490000000001,5.63377,8.89,11.049,0.0,-1.64502,-0.19838,0.17118,0.0,-2.096910013
DWMREKMVXIFPFM-RWWBHRBBNA-N,dmso,351.394,321.701,-33478.03200000001,-1444.9940833333385,628.4490000000001,5.63377,6.843999999999999,9.71,-2.91786,-0.88201,-0.97662,2.49301,-1.75069,-1.11570155
LPNBBFKOUUSUDB-BGGKNDAXNA-N,dimethylacetamide,136.15,170.351,-22614.674,-1822.170399999999,628.4490000000001,5.63377,9.47,11.157,-1.11058,-0.50144,-0.62378,0.67588,-1.11058,0.248576486
OBKXEAXTFZPCHS-WXRBYKJCNA-N,methanol,164.204,211.864,-24892.94,-1086.490333333335,628.4490000000001,5.63377,10.637,12.374,-1.11158,-1.06326,-0.62423,0.6716,-1.11158,0.681241237
GPSDUZXPYCFOSQ-BGGKNDAXNA-N,cyclohexane,136.15,170.132,-21787.924,-594.339085714284,628.4490000000001,5.63377,9.826,13.942,-1.041,-0.484,-0.5589,0.63391,-1.041,-0.923400734
WNLRTRBMVRJNCN-AUDIXQRPNA-N,benzene,146.143,183.761,-23526.182,-519.7045263157888,628.4490000000001,5.63377,9.956,11.879,-2.11951,0.0410599999999999,-0.5664,0.64299,-2.11951,-2.863745051
WBYWAXJHAXSJNI-KZFATGLANA-N,acetonitrile,148.161,186.864,-22835.34,-575.8043750000033,628.4490000000001,5.63377,11.783,11.079,-1.10868,-0.4511799999999999,-0.6221,0.68328,-1.10868,-0.574620771
LDHQCZJRKDOVOX-GSMIJIFMNA-N,ethanol,86.0902,125.366,-19420.742,-368.3309999999983,628.4490000000001,5.63377,10.064,13.753,-1.12924,-0.16163,-0.64032,0.69704,-1.12924,0.68394143
ONUFSRWQCKNVSL-UHFFFAOYNA-N,chloroform,334.116,260.826,-29257.490000000005,161.84379999998782,628.4490000000001,5.63377,9.856,10.129,0.0,0.79061,-0.09562,0.16697,-0.79062,0.456816725
YNPNZTXNASCQKK-UHFFFAOYNA-N,decane,178.233,209.472,-23098.25,-716.6701666666668,219.404,0.0256899,9.994,12.763,0.0,-1.54417,-0.1687,0.15803,0.0,-0.543633967
HYZJCKYKOHLVJF-FZOZFQFYNA-N,methanol,118.138,147.573,-19925.756,-452.2248888888898,141.02700000000002,5.306290000000001,10.021,12.045,0.0,-0.5373,-0.43929,0.31103,-0.65462,0.444131129
GVEPBJHOBDJJJI-UHFFFAOYNA-N,1-pentanol,202.255,227.244,-23052.858,-488.9382040816272,141.02700000000002,5.306290000000001,8.926,11.602,0.0,-1.64596,-0.15662,0.1675,0.0,-0.878768545
QELSKZZBTMNZEB-UHFFFAOYNA-N,1-decanol,180.203,220.127,-25820.328,-942.0405454545436,141.02700000000002,5.306290000000001,9.678,12.688,-1.5105,-0.6471200000000001,-0.60388,0.68473,-1.5105,-0.035321774
JTEGQNOMFQHVDC-IRNSGEEPNA-N,methanol,229.253,227.613,-26443.168,-682.5623999999916,141.02700000000002,5.306290000000001,9.8,12.422,-1.65651,0.86155,-0.66396,0.71989,-3.29364,-0.806726274
WBYWAXJHAXSJNI-KZFATGLANA-N,hexane,148.161,181.074,-22706.574,-447.0383750000037,141.02700000000002,5.306290000000001,10.339,14.065,-1.0388,-0.42457,-0.54752,0.65837,-1.0388,-1.403901254
JZFPYUNJRRFVQU-VEWCPZSHNA-N,1-pentanol,282.222,275.957,-29278.282,-1141.1906315789456,141.02700000000002,5.306290000000001,9.131,11.86,-1.09037,0.58116,-0.61537,0.70278,-2.53338,-0.777283529
WJFKNYWRSNBZNX-UHFFFAOYNA-N,2-ethyl-1-hexanol,199.27,217.26,-24394.408,-1147.7879999999968,141.02700000000002,5.306290000000001,9.825,10.908,0.0,-1.21294,-0.39844,0.29574,-0.42598,-1.196243161
AFPHTEQTJZKQAQ-BGGKNDAXNA-N,2-butanol,167.121,179.6,-23030.496000000003,-1213.6282222222253,176.298,3.95189,8.583,13.825,-2.08981,0.1046,-0.59217,0.86361,-1.2262,0.289720016
IEDVJHCEMCRBQM-CLRGVMNRNA-N,acetone,290.321,311.538,-31544.272,-75.00377777777976,176.298,3.95189,9.513,9.995,-1.14307,-0.28267,-0.56033,0.43264,-3.19725,-1.814446808
NIHNNTQXNPWCJQ-UHFFFAOYNA-N,methylcyclohexane,166.222,200.685,-21549.334,-147.2029999999977,176.298,3.95189,10.263,13.080000000000002,0.0,-1.58559,-0.32139,0.17629,0.0,-0.504934949
RXKNNAKAVAHBNK-UHFFFAOYNA-N,2-methyl-2-butanol,140.098,154.652,-20156.418,1371.7856842105284,176.298,3.95189,8.31,13.336,-1.57602,-0.76108,-0.58397,0.86584,-0.0977499999999998,-1.296708622
KFIRODWJCYBBHY-QIQUEDJNNA-N,thf,211.131,203.888,-25677.392,-1063.2940000000017,176.298,3.95189,7.556999999999999,13.595,-2.9751,0.79496,-0.55504,0.84233,-2.13277,0.362436837
AVPYQKSLYISFPO-UHFFFAOYNA-N,ethanol,140.569,162.257,-20966.721999999994,-1365.2284,176.298,3.95189,9.416,12.911,-0.5708,-0.1937099999999999,-0.5708,0.45264,-0.66635,0.447931182
LXNHXLLTXMVWPM-UHFFFAOYNA-N,thf,169.18,193.913,-24059.456,-489.5604999999923,195.752,8.23805,8.908999999999999,11.787,-1.66195,-0.41001,-0.58977,0.36615,-2.00284,-1.476715865
KBOPZPXVLCULAV-KZFATGLANA-N,methanol,153.137,174.186,-24001.644,-2178.2228,195.752,8.23805,9.581,11.47,-1.58381,0.28591,-0.61637,0.69395,-2.09306,-1.376708864
PJANXHGTPQOBST-VAWYXSNFNA-N,undecane,180.249,233.278,-24101.698,-668.3317777777738,195.752,8.23805,10.129,12.87,0.0,-1.83048,-0.18424,0.15523,0.0,-1.120044415
MWOOGOJBHIARFG-UHFFFAOYNA-N,thf,152.149,179.427,-23468.066,-1371.7546000000002,195.752,8.23805,8.498,11.564,-1.42263,-0.0996999999999999,-0.56627,0.44622,-1.42263,0.554100126
RGGYLRDGJAJICY-ZYMSVLFVNA-N,acetonitrile,504.627,500.587,-43544.50800000001,-352.62150000001566,625.798,7.33307,11.585,10.248,-1.5072800000000002,-3.14388,-0.63953,0.65212,-2.3241,-1.698970004
YNPNZTXNASCQKK-UHFFFAOYNA-N,1-hexanol,178.233,209.472,-22839.098,-457.5181666666649,625.798,7.33307,9.406,11.61,0.0,-1.62822,-0.17475,0.16699,0.0,-0.619788758
FFGPTBGBLSHEPO-ZHLVXTBQNA-N,2-propanol,236.273,250.258,-26826.724,-971.5689999999996,625.798,7.33307,9.846,11.919,-0.67391,-0.6711,-0.67391,0.69417,-1.6119400000000002,-1.310759687
WBYWAXJHAXSJNI-KZFATGLANA-N,chloroform,148.161,186.309,-22912.634,-653.0983750000014,180.942,4.21241,10.362,9.076,-1.08612,-0.4462,-0.60003,0.67166,-1.08612,-0.2015499
KZTYYGOKRVBIMI-UHFFFAOYNA-N,4-methyl-2-pentanol,218.27,232.193,-25711.814,495.9699166666651,180.942,4.21241,9.941,12.966,-1.98939,-2.09991,-0.9948,2.45507,0.4656800000000001,-1.447614751
UFWIBTONFRDIAS-UHFFFAOYNA-N,peg400,128.173,165.632,-19470.54,126.24303030303054,165.05700000000002,0.00298448,8.979000000000001,9.936,0.0,-1.28616,-0.17626,0.16297,0.0,0.047
CPJSUEIXXCENMM-WXRBYKJCNA-N,cyclohexane,179.218,222.981,-27258.664,-1204.569571428572,165.05700000000002,0.00298448,10.504,12.697,-0.97842,-0.92073,-0.62241,0.64493,-1.43165,-2.1124032833770494
GVIJJXMXTUZIOD-UHFFFAOYNA-N,tert-butylcyclohexane,216.315,223.654,-23474.718,-476.0803157894734,239.677,1.6794600000000002,9.849,12.503,0.0,-1.27735,-0.1394,0.16845,-0.03399,-1.419043964
HOKCUULFCASAQT-OLAIDOCJNA-N,benzene,472.669,516.402,-46331.524000000005,-1441.8843333333352,239.677,1.6794600000000002,8.686,9.071,-1.1891699999999998,-4.24885,-0.61469,0.65351,-2.1164,-1.301029996
XNGIFLGASWRNHJ-FLKJISBTNA-N,methanol,166.133,180.626,-24564.812,-1876.3051428571416,239.677,1.6794600000000002,9.198,13.325,-2.11289,0.65869,-0.58769,0.6581,-2.11289,-0.369572125
VRPJIFMKZZEXLR-DEPUQRHONA-N,thf,175.184,208.005,-26752.496000000003,-370.2766153846169,239.677,1.6794600000000002,9.459,13.006,-2.21904,-0.08007,-0.6411,0.73462,-2.65692,0.566627956
DGBIGWXXNGSACT-GPQMBLKYNA-N,n-methyl-2-pyrrolidone,315.715,294.208,-30283.957999999995,-231.55799999999,336.711,3.4082800000000004,7.486,11.105,-1.61015,-0.4071300000000001,-0.58815,0.86907,-1.6042,-0.175874166
WNLRTRBMVRJNCN-AUDIXQRPNA-N,cyclohexanone,146.143,181.914,-24900.0,-1893.522526315788,336.711,3.4082800000000004,10.172,12.202,-2.2247,0.08494,-0.61474,0.6697,-2.2247,-0.84895653
ZPSPULCZMWMHCY-GHUVFRGKNA-N,methanol,276.656,256.1,-28639.876,-645.9636666666629,294.631,6.95236,10.093,12.545,-2.89531,-1.44292,-0.91492,1.85174,-1.14867,-0.787008105
MUMGGOZAMZWBJJ-DYKIIFRCNA-N,water,288.429,301.709,-31273.516,-475.8349999999991,376.433,6.72914,11.414,14.271999999999998,-1.26449,-3.21143,-0.65849,0.64928,-1.26449,-4.072666566
BOCJQSFSGAZAPQ-UHFFFAOYNA-N,1-hexanol,242.661,236.9,-25946.558,-775.0886530612224,256.833,1.85044,8.259,12.948,-1.07346,-0.12659,-0.54062,0.56839,-1.13962,-2.009943528
JDCMOHAFGDQQJX-UHFFFAOYNA-N,"trans-1,2-dimethylcyclohexane",272.097,214.933,-25504.17,134.5521999999983,228.343,0.00127672,8.405999999999999,13.797999999999998,0.0,0.61394,-0.0828,0.11865,-0.61392,-0.233710237
BBEAQIROQSPTKN-UHFFFAOYNA-N,fluorobenzene,202.255,222.477,-22113.08,-4.971014925369673,228.343,0.00127672,8.389000000000001,8.179,0.0,-1.63163,-0.17753,0.16468,0.0,-0.209714836
ILUJQPXNXACGAN-BGGKNDAXNA-N,2-pentanol,152.149,179.474,-23488.412,-604.7397837837889,228.343,0.00127672,9.688,12.422,-1.47325,-0.0761099999999999,-0.61793,0.70367,-1.47325,-0.408935393
DAUAQNGYDSHRET-KZFATGLANA-N,butanone,182.176,208.634,-26765.096,-2415.6798461538456,228.343,0.00127672,9.1,9.694,-1.84228,-0.0614299999999999,-0.61205,0.66973,-1.84228,-0.879000001
HYZJCKYKOHLVJF-FZOZFQFYNA-N,1-hexanol,118.138,147.573,-19894.312,-420.7808888888867,141.02700000000002,5.14525,9.871,12.13,0.0,-0.53499,-0.4278,0.30768,-0.64775,-0.003488328
PJANXHGTPQOBST-VAWYXSNFNA-N,tert-butylcyclohexane,180.249,233.489,-24121.93,-688.5637777777774,141.02700000000002,5.14525,9.801,12.782,0.0,-1.8304,-0.18427,0.15521,0.0,-1.041153506
ZUOUZKKEUPVFJK-UHFFFAOYNA-N,toluene,154.211,198.095,-21666.818,-848.1888148148137,141.02700000000002,5.14525,9.108,9.675999999999998,0.0,-1.54044,-0.1732,0.15779,0.0,0.482792311
YLFRRPUBVUAHSR-RRPFGEQONA-N,acetone,314.467,330.476,-33552.422,-1359.1659999999974,141.02700000000002,5.14525,9.924,10.011,-1.24374,-3.57533,-0.64715,0.6485,-1.24374,-0.951548295
JLKIGFTWXXRPMT-NDKGDYFDNA-N,water,253.275,257.791,-28759.064,-1333.105714285717,141.02700000000002,5.14525,11.474,13.142,-2.10253,-1.2826099999999998,-0.98505,2.59386,-1.1387900000000002,-2.798666669
WZWYJBNHTWCXIM-ZTGFOJEANA-N,dmso,337.368,306.311,-31201.953999999994,-420.2766666666612,141.02700000000002,5.14525,6.805,10.319,-2.95666,-0.7977299999999999,-0.96209,2.5304,-1.5534599999999998,-0.676836806
BGNGWHSBYQYVRX-UHFFFAOYNA-N,trifluoroethanol,149.192,191.631,-22880.674,-1214.5662857142852,194.07,8.22579,10.795,9.505,-0.61252,-0.91828,-0.61252,0.46975,-0.8702799999999999,0.649334859
QUEKGYQTRJVEQC-KZFATGLANA-N,1-propanol,201.566,196.512,-24531.800000000003,-1023.9186086956544,194.07,8.22579,8.407,13.411,-2.05072,0.25142,-0.57703,0.86798,-1.22166,-0.022276395
ZEYHEAKUIGZSGI-BGGKNDAXNA-N,1-pentanol,152.149,180.207,-23309.726,-1823.204068965515,178.01,5.4081,9.576,12.448,-1.48389,-0.0967699999999999,-0.61971,0.6832,-1.48389,-1.0
SWJPEBQEEAHIGZ-UHFFFAOYNA-N,toluene,235.906,168.859,-20954.792,-1935.3591764705889,178.01,5.4081,8.681999999999999,10.162,0.0,-0.53958,-0.14034,0.17876,-0.17528,0.350924898
DWCLXOREGBLXTD-UHFFFAOYNA-N,cyclohexanone,176.172,185.638,-24906.556,-563.9147142857109,178.01,5.4081,8.478,12.242,-1.92171,-1.86068,-0.52213,0.73297,-0.45591,-1.159705612
GVPWHKZIJBODOX-UHFFFAOYNA-N,ethanol,246.385,274.901,-29820.846,-1987.571600000003,178.01,5.4081,9.2,12.077,0.0,-2.18233,-0.3104,0.1955,-0.18162,-1.51787141
YGSDEFSMJLZEOE-BGGKNDAXNA-N,"1,2-propanediol",138.123,157.247,-21526.392,-379.5794000000024,178.01,5.4081,9.427,11.971,-1.59228,0.14573,-0.5981,0.69449,-1.59228,0.226427187
KZTYYGOKRVBIMI-UHFFFAOYNA-N,2-methyl-1-propanol,218.27,231.896,-25821.116,386.6679166666654,178.01,5.4081,9.781,12.956,-1.99568,-2.10093,-0.99793,2.45747,0.4617899999999998,-1.368285267
GSBSDUZVSCTUKA-PKSOQXRJNA-N,ethanol,288.345,304.163,-28831.172,-154.84106666666776,178.01,5.4081,9.052,11.099,-1.11111,-1.78855,-0.60788,0.66878,-1.11111,-0.183830518
IPCSVZSSVZVIGE-HCKMINDGNA-N,nitromethane,256.428,355.459,-34932.522000000004,-1330.3150000000023,178.01,5.4081,11.635,10.017,-1.12028,-3.57722,-0.63213,0.67545,-1.12028,-1.688573258
PJANXHGTPQOBST-VAWYXSNFNA-N,1-hexanol,180.249,233.288,-24256.072,-822.7057777777736,178.01,5.4081,9.633,11.767,0.0,-1.91986,-0.19039,0.16267,0.0,-1.173411556
ALYNCZNDIQEVRV-BGGKNDAXNA-N,formamide,137.138,165.495,-21856.626,-955.6902758620636,178.01,5.4081,9.934,10.114,-1.12793,0.0219299999999999,-0.63738,0.68755,-1.62645,-0.583359493
CWRYPZZKDGJXCA-UHFFFAOYNA-N,nonane,154.211,186.967,-20973.576,388.35280000000057,178.01,5.4081,10.287,12.445,0.0,-1.57085,-0.29292,0.16217,0.0,-0.389659289
MWPLVEDNUUSJAV-UHFFFAOYNA-N,p-xylene,178.233,211.323,-21522.75,716.7684571428581,221.711,0.00122804,7.595000000000001,8.632,0.0,-1.5665,-0.19344,0.16278,0.0,-1.221933199
DWCLXOREGBLXTD-UHFFFAOYNA-N,acetonitrile,176.172,185.144,-24725.986,-383.3447142857112,209.613,9.38337,11.33,12.92,-1.93114,-1.86131,-0.52238,0.73409,-0.46298,-1.06673237
IPCSVZSSVZVIGE-HCKMINDGNA-N,water,256.428,352.673,-34977.746,-1375.538999999997,209.613,9.38337,11.955,14.681,-1.11793,-3.55021,-0.63108,0.67172,-1.11793,-6.809999052
WJUFSDZVCOTFON-UHFFFAOYNA-N,hexane,166.176,199.914,-24923.834,-1925.2858333333352,199.673,3.26966,10.206,13.222,-1.2017600000000002,-0.33896,-0.50929,0.41562,-1.2017600000000002,-1.15490196