InChIkey,Solvent,MW,SASA,G_sol,DeltaG_sol,Volume,sol_dip,LsoluHsolv,LsolvHsolu,O_charges,C_charges,Most_neg,Most_pos,Het_charges,LogS
XMTQQYYKAHVGBJ-XWKXFZRBNA-N,heptane,233.097,243.319,-26954.518,-1969.826479999996,193.353,0.000408167,10.516,13.13,-0.59594,-0.23763,-0.59594,0.67383,-1.57333,-3.740000205
GUCYFKSBFREPBC-UHFFFAOYNA-N,methanol,418.471,406.062,-42817.472,-940.1479999999864,519.127,6.89177,9.443,12.449,-1.84672,-4.35682,-0.90472,1.27701,-0.5697099999999999,-1.265109266
VLYWMPOKSSWJAL-YAQRNVERNA-N,water,280.301,270.882,-29057.962,220.32258333333448,519.127,6.89177,10.44,13.169,-2.2707,-1.00183,-0.97158,2.55089,-1.47249,-3.280000381
YLQWCDOCJODRMT-UHFFFAOYNA-N,1-octanol,180.206,204.615,-22397.42,-580.136279069764,519.127,6.89177,8.884,12.22,-0.54702,-0.8042,-0.54702,0.59385,-0.54702,-0.366765772
SKZKKFZAGNVIMN-FSHFIPFONA-N,2-methyl-1-propanol,137.138,160.839,-21295.668,-796.4561176470525,519.127,6.89177,9.492,12.543,-1.19438,0.0579900000000001,-0.68561,0.64158,-1.71377,-0.605548319
UFWIBTONFRDIAS-UHFFFAOYNA-N,heptane,128.173,165.695,-19403.798,192.9850303030325,519.127,6.89177,10.33,12.778,0.0,-1.22296,-0.16883,0.15481,0.0,-0.164002561
OIGXDZJSRMPECU-UHFFFAOYNA-N,methanol,272.26,286.103,-29889.644,674.7753333333312,519.127,6.89177,9.013,12.113,-1.94146,-1.09667,-0.59484,0.872,-1.25095,-1.0
KZTYYGOKRVBIMI-UHFFFAOYNA-N,methylcyclohexane,218.27,232.016,-25837.186,370.5979166666693,519.127,6.89177,10.16,14.339,-1.91557,-2.08327,-0.95782,2.42287,0.5073000000000001,-2.155979664
BMLIZLVNXIYGCK-WXRBYKJCNA-N,"2,2,4-trimethylpentane",198.652,226.336,-25872.17,-1976.4125517241337,229.521,6.12985,10.546,13.05,-0.59952,-0.3915999999999999,-0.59952,0.67466,-1.5456800000000002,-3.550000452
VRPJIFMKZZEXLR-DEPUQRHONA-N,chloroform,175.184,211.397,-27468.71,-1086.4906153846132,229.521,6.12985,11.198,9.809,-2.19606,-0.0476399999999998,-0.63944,0.74521,-2.6612,0.58546073
HEWGVSGLMQJYHJ-UHFFFAOYNA-N,toluene,288.048,229.267,-26395.583999999995,206.56366666666872,241.067,4.0801,7.156,10.451,-0.91869,0.70128,-0.4594,0.59704,-1.58462,-1.431012855
RGHHSNMVTDWUBI-UHFFFAOYNA-N,ethanol,122.123,152.244,-20430.722,-770.6339999999982,241.067,4.0801,9.693,12.603,-1.07565,-0.1307599999999999,-0.59041,0.46697,-1.07565,0.401366344
WJFKNYWRSNBZNX-UHFFFAOYNA-N,ethanol,199.27,216.881,-23978.404,-731.7839999999997,241.067,4.0801,10.037,10.942,0.0,-1.2265899999999998,-0.40009,0.30361,-0.43803,-0.831985494
UFWIBTONFRDIAS-UHFFFAOYNA-N,benzene,128.173,165.632,-19446.924,149.85903030303234,241.067,4.0801,8.957,9.118,0.0,-1.23362,-0.17004,0.15623,0.0,0.46991998
FJKROLUGYXJWQN-BGGKNDAXNA-N,acetone,138.123,160.87,-21767.0,-929.10671428571,241.067,4.0801,9.418,10.453,-1.58885,0.135,-0.62153,0.6843,-1.58885,0.188763129
SQNZJJAZBFDUTD-UHFFFAOYNA-N,acetonitrile,134.221,191.191,-22790.36,-321.7094193548364,195.238,0.00198711,13.06,10.221,0.0,-2.35794,-0.49211,0.17172,0.0,-0.33202605
RGHHSNMVTDWUBI-UHFFFAOYNA-N,acetonitrile,122.123,152.267,-20552.224,-892.1359999999986,195.238,0.00198711,11.949,11.042,-1.08057,-0.12993,-0.59493,0.46893,-1.08057,0.164352856
VYWYYJYRVSBHJQ-KZFATGLANA-N,2-isopropoxyethanol,212.118,207.701,-25277.5,-1371.7392592592587,195.238,0.00198711,7.684,13.373,-2.99364,0.27096,-0.57,0.87083,-1.25267,0.035837863
ZWLPBLYKEWSWPD-BGGKNDAXNA-N,1-hexanol,136.15,166.84,-22330.056,-1321.973249999999,195.238,0.00198711,9.632,12.726,-1.09661,-0.49179,-0.62098,0.68116,-1.09661,0.139879086
PJANXHGTPQOBST-VAWYXSNFNA-N,4-methyl-2-pentanol,180.249,234.188,-24966.922,-1533.5557777777758,195.238,0.00198711,9.955,12.021,0.0,-1.92697,-0.19522,0.16782,0.0,-1.396154586
GVIJJXMXTUZIOD-UHFFFAOYNA-N,2-methyl-2-butanol,216.315,223.654,-23674.52,-675.8823157894731,195.238,0.00198711,9.679,11.783,0.0,-1.28918,-0.14148,0.17429,-0.07342,-1.665654373
GSDSWSVVBLHKDQ-QVNXLTHBNA-N,1-butanol,361.372,345.937,-34220.448,-631.5376666666707,401.225,12.9172,9.038,11.778,-2.07905,-0.4587500000000001,-0.61579,0.74088,-3.04225,-1.624394137
LNEPOXFFQSENCJ-UHFFFAOYNA-N,toluene,375.87,396.071,-35853.386,-611.4542222222226,401.225,12.9172,8.418,8.899999999999999,-1.12262,-2.02698,-0.58955,0.57988,-1.7341,-0.962306816
IMMLSOUHQHJKTL-LNNLXFCONA-N,water,467.348,434.013,-43162.518,-1081.2284999999974,401.225,12.9172,11.084,12.718,-2.53783,-0.83519,-0.60773,0.66113,-3.6814,-1.455931956
WPYMKLBDIGXBTP-FZOZFQFYNA-N,octane,122.123,151.267,-20454.332,-723.3326500000003,144.24200000000002,2.8562900000000004,10.169,14.239,-1.04327,-0.11454,-0.55998,0.63942,-1.04327,-1.091514981
RYYVLZVUVIJVGH-UHFFFAOYNA-N,dichloromethane,194.193,206.976,-26054.754,-2112.591666666667,216.296,5.00706,10.227,9.525,-1.1951,0.32096,-0.59985,0.687,-2.20608,-0.27426452
SATCULPHIDQDRE-UHFFFAOYNA-N,water,150.134,167.909,-22441.658,-1948.774545454544,164.18099999999998,4.89508,10.63,13.206,-1.30579,0.26801,-0.5765,0.45544,-1.30579,-1.634136084
BBEAQIROQSPTKN-UHFFFAOYNA-N,1-butanol,202.255,222.477,-22117.99,-9.881014925369527,242.492,0.00166499,8.844999999999999,11.14,0.0,-1.66455,-0.17856,0.168,0.0,-1.171984936
NIHNNTQXNPWCJQ-UHFFFAOYNA-N,dodecane,166.222,200.685,-21551.024,-148.8929999999964,242.492,0.00166499,10.394,12.918,0.0,-1.58555,-0.32138,0.17629,0.0,-0.62228309
XZAXQWXHBDKYJI-CMLSCEPHNA-N,1-propanol,346.276,318.278,-33028.92799999999,-492.16974999999,376.808,7.98829,9.393,12.18,-3.68795,-1.1273000000000002,-0.92946,1.62067,-2.06728,-1.361068758
BBEAQIROQSPTKN-UHFFFAOYNA-N,o-xylene,202.255,222.477,-22101.486,6.62298507462765,376.808,7.98829,7.683000000000001,8.698,0.0,-1.59027,-0.17603,0.16047,0.0,-0.215338734
YRHRIQCWCFGUEQ-UHFFFAOYNA-N,decane,212.266,221.762,-24063.57,-870.479178571426,376.808,7.98829,9.663,13.047,-0.53866,-0.8025,-0.53866,0.56473,-0.5336000000000001,-2.40852668
MHKKFFHWMKEBDW-UHFFFAOYNA-N,acetone,228.201,242.567,-28886.92,-921.040857142856,376.808,7.98829,9.481,11.733,-2.96656,0.5952000000000001,-0.57129,0.6746,-2.96656,-1.233826802
YGSDEFSMJLZEOE-BGGKNDAXNA-N,dichloromethane,138.123,160.129,-22103.956,-957.1434000000008,155.43,4.8828,10.147,9.834,-1.56533,0.14795,-0.60979,0.7012,-1.56533,-0.823908741
DCOPUUMXTXDBNB-GPQMBLKYNA-N,1-pentanol,296.152,280.108,-29834.536000000004,-1252.2994000000035,321.062,4.0627200000000006,9.665,11.628,-1.09992,-0.61538,-0.60422,0.67294,-1.66441,-0.830077098
ZUOUZKKEUPVFJK-UHFFFAOYNA-N,2-ethyl-1-hexanol,154.211,198.095,-21892.076,-1073.4468148148153,321.062,4.0627200000000006,10.028,12.156,0.0,-1.58684,-0.17824,0.16206,0.0,-0.221687976
BOCJQSFSGAZAPQ-UHFFFAOYNA-N,octane,242.661,236.9,-25836.862000000005,-665.3926530612298,321.062,4.0627200000000006,8.979,14.081,-0.97693,-0.1911299999999999,-0.49593,0.53988,-1.02553,-2.524343482
BBEAQIROQSPTKN-UHFFFAOYNA-N,octane,202.255,222.477,-22095.438,12.670985074626516,242.514,0.00043644,9.606,12.21,0.0,-1.57044,-0.17523,0.15845,0.0,-1.073966403
JZFPYUNJRRFVQU-VEWCPZSHNA-N,"1,4-dioxane",282.222,277.518,-29336.612000000005,-1199.520631578951,242.514,0.00043644,8.447000000000001,10.729,-1.05952,0.5674300000000001,-0.58552,0.68703,-2.45422,-0.287350298
UVEWQKMPXAHFST-UHFFFAOYNA-N,ethanol,181.237,229.817,-24722.382,-1359.4512499999985,231.4,2.9698400000000005,9.869000000000002,12.287,0.0,-1.43667,-0.37149,0.17261,-0.37149,0.103682519
OFJWFSNDPCAWDK-WXRBYKJCNA-N,dmso,164.204,203.032,-24304.306,-423.7419999999984,211.183,2.8890900000000004,8.283999999999999,10.776,-1.09275,-1.04244,-0.61683,0.64937,-1.09275,0.775974331
ILUJQPXNXACGAN-BGGKNDAXNA-N,3-methyl-1-butanol,152.149,179.13,-23916.766,-1033.0937837837882,177.362,5.43883,9.481,12.528,-1.47382,-0.07626,-0.61858,0.70397,-1.47382,-0.443697499
ISAOCJYIOMOJEB-UHFFFAOYNA-N,ethanol,212.248,245.48,-26545.666,-873.8933157894753,260.063,2.28248,9.535,12.852,-1.09412,-1.08014,-0.54927,0.5242,-1.09412,-1.337568603
FZERHIULMFGESH-BGGKNDAXNA-N,ethanol,135.165,175.049,-22772.168,-665.471833333333,169.623,5.42471,10.3,12.071,-0.64825,-0.68067,-0.64825,0.66906,-1.10057,0.259957742
WNLRTRBMVRJNCN-AUDIXQRPNA-N,2-propanol,146.143,183.605,-23265.522,-259.04452631578897,177.739,1.1253,10.699,14.537,-2.21088,0.0850399999999999,-0.62022,0.66697,-2.21088,-0.320204819
SQNZJJAZBFDUTD-UHFFFAOYNA-N,butyronitrile,134.221,191.408,-23985.536,-1516.885419354836,177.739,1.1253,12.396,10.24,0.0,-2.35221,-0.49178,0.17135,0.0,0.136641147
HUPFGZXOMWLGNK-HCKMINDGNA-N,acetonitrile,250.201,248.58,-28899.588000000003,-1876.5555000000056,177.739,1.1253,11.67,10.783,-1.57697,0.02977,-0.62586,0.69515,-1.89176,-1.173925197
DAUAQNGYDSHRET-KZFATGLANA-N,ethanol,182.176,208.19,-26496.088,-2146.671846153844,177.739,1.1253,9.532,11.984,-1.84594,-0.0617899999999999,-0.61383,0.67034,-1.84594,-0.853479177
ZUOUZKKEUPVFJK-UHFFFAOYNA-N,2-methyl-1-propanol,154.211,198.095,-22070.24,-1251.610814814816,177.739,1.1253,9.983,12.252,0.0,-1.60117,-0.17982,0.16333,0.0,-0.385027345
HYZJCKYKOHLVJF-FZOZFQFYNA-N,heptane,118.138,147.573,-19822.104,-348.572888888888,141.02700000000002,4.13723,10.665,13.208,0.0,-0.51782,-0.34907,0.28362,-0.59699,-2.836310396
ZEYHEAKUIGZSGI-BGGKNDAXNA-N,2-ethyl-1-hexanol,152.149,180.163,-23548.79,-2062.268068965513,177.98,5.27018,9.537,12.489,-1.47206,-0.0964699999999999,-0.61046,0.67905,-1.47206,-1.15490196
DAUAQNGYDSHRET-KZFATGLANA-N,2-methyl-1-propanol,182.176,208.567,-26872.588,-2523.171846153844,210.545,3.37869,9.274,12.023,-1.84181,-0.06191,-0.61179,0.6696,-1.84181,-1.314999998
SKZKKFZAGNVIMN-FSHFIPFONA-N,2-ethoxyethanol,137.138,161.123,-21121.19,-621.9781176470569,210.545,3.37869,9.04,11.858,-1.18593,0.0638,-0.6893,0.64798,-1.72988,0.124012583
VZCYOOQTPOCHFL-AOTPWWKUNA-N,methanol,116.073,135.448,-21145.564,-582.2589999999982,124.183,3.97233,9.115,14.568,-2.09952,0.92794,-0.58724,0.65928,-2.09952,0.58172216
ISAOCJYIOMOJEB-UHFFFAOYNA-N,water,212.248,245.486,-26628.68,-956.9073157894744,259.29799999999994,2.3522100000000004,10.765,13.941,-1.10094,-1.08113,-0.5549,0.5272,-1.10094,-3.447333146
PEQHIRFAKIASBK-UHFFFAOYNA-N,benzene,320.433,335.081,-31708.910000000003,-159.56979999999749,402.612,0.00167271,9.714,9.71,0.0,-3.08118,-0.18243,0.15916,0.0,-1.600000005
LULAYUGMBFYYEX-BGGKNDAXNA-N,2-butanol,156.568,170.48,-22103.214,-916.7128571428512,402.612,0.00167271,9.264,12.985,-1.07749,0.0713599999999999,-0.59965,0.66233,-1.16428,-0.017300168
OTLNPYWUJOZPPA-BGGKNDAXNA-N,2-methyl-1-butanol,167.121,179.815,-23253.118,-1377.559729729728,402.612,0.00167271,8.114,13.552,-2.0486,0.06799,-0.57899,0.8422,-1.2064,-1.301029996
IWYDHOAUDWTVEP-KZFATGLANA-N,chloroform,152.149,178.112,-22664.11,-530.521333333334,402.612,0.00167271,11.071,9.253,-1.56244,-0.1236699999999999,-0.56813,0.5674,-1.56244,-1.0
LVHBHZANLOWSRM-HJYFZBQUNA-N,2-propanol,130.1,154.489,-22364.17,-1113.1424999999945,146.40200000000002,3.34126,9.831,14.133,-2.16393,0.63527,-0.60038,0.67044,-2.16393,0.051106767
QGJZLNKBHJESQX-WRDJYESVNA-N,1-pentanol,456.707,434.053,-40670.21,291.5968333333367,146.40200000000002,3.34126,10.772,12.496,-1.7166,-5.74423,-0.61063,0.62777,-1.7166,-1.613068454
CFOAUYCPAUGDFF-UHFFFAOYNA-N,toluene,195.236,215.822,-25092.114,113.6407999999974,146.40200000000002,3.34126,8.886999999999999,10.561,-1.89718,-1.89037,-0.95184,2.43022,0.2441799999999998,-0.853871964
SATCULPHIDQDRE-UHFFFAOYNA-N,chloroform,150.134,168.377,-22134.006,-1641.1225454545456,164.686,4.40227,10.25,8.532,-1.24968,0.2511799999999999,-0.5375,0.43627,-1.24968,0.900367129
PEQHIRFAKIASBK-UHFFFAOYNA-N,heptane,320.433,334.47,-31635.88,-86.53979999999501,164.686,4.40227,11.088,13.368,0.0,-3.06148,-0.18133,0.15849,0.0,-2.250000019
YVUQSNJEYSNKRX-VJSLDGLSNA-N,1-pentanol,461.553,473.528,-39340.906,-280.9031249999971,164.686,4.40227,9.98,11.605,-0.63952,-2.61001,-0.63952,0.64019,-2.11297,-1.52828242
WTJMJAZVXNFVHB-LBOYIXSDNA-N,methanol,509.428,489.675,-46454.52,-844.1009999999951,164.686,4.40227,9.844,11.321,-2.54694,-1.5820800000000002,-0.60867,0.66882,-3.79582,-1.30980392
WBYWAXJHAXSJNI-KZFATGLANA-N,1-octanol,148.161,181.325,-22762.384,-502.848375000005,182.608,2.4054800000000003,9.655,12.553999999999998,-1.0925,-0.43903,-0.59545,0.68347,-1.0925,-0.176769166
YBZQRYWKYBZZNT-IAUQMDSZNA-N,toluene,113.159,156.614,-21793.630000000005,-1293.8143333333392,182.608,2.4054800000000003,10.334,10.982,-0.61889,-0.92431,-0.61889,0.6416,-1.18513,-0.4225082
ZUOUZKKEUPVFJK-UHFFFAOYNA-N,hexane,154.211,198.095,-21631.44,-812.8108148148167,182.608,2.4054800000000003,10.862,13.603000000000002,0.0,-1.52622,-0.17172,0.15645,0.0,-0.023016493
FAOHQGXEASKQDL-AHPDCHJINA-N,ethanol,215.685,247.507,-28763.026,-2734.0045454545507,254.079,7.049760000000001,9.602,12.72,0.0,-0.11141,-0.56326,0.49255,-2.42709,-1.229570424
ILUJQPXNXACGAN-BGGKNDAXNA-N,ethanol,152.149,178.83,-23849.602,-965.9297837837876,176.957,4.5381,9.73,12.441,-1.48538,-0.0737800000000001,-0.61181,0.70166,-1.48538,0.075546961
CWRYPZZKDGJXCA-UHFFFAOYNA-N,heptane,154.211,187.008,-20945.194000000003,416.7347999999984,176.957,4.5381,10.511,12.5,0.0,-1.56734,-0.29263,0.16179,0.0,-0.379863945
XRHGYUZYPHTUJZ-BGGKNDAXNA-N,1-hexanol,156.568,170.469,-22728.378,-1327.5173333333332,176.957,4.5381,9.228,13.010000000000002,-1.0827,0.0719,-0.60208,0.66768,-1.17101,-0.879736081
CWRYPZZKDGJXCA-UHFFFAOYNA-N,benzene,154.211,187.008,-20954.642,407.2868000000017,176.957,4.5381,9.133,8.844,0.0,-1.57999,-0.29368,0.16316,0.0,0.233375226
ZIMGGGWCDYVHOY-UHFFFAOYNA-N,1-propanol,209.25,235.345,-26170.504000000004,-868.1777142857172,176.957,4.5381,9.573,11.934,-0.32851,-0.2329999999999999,-0.66815,0.49943,-2.6208,-1.038062678
VHHHONWQHHHLTI-UHFFFAOYNA-N,"1,2-dichloroethane",236.74,176.295,-21909.248,-49.00530434782559,176.957,4.5381,9.004999999999999,12.019,0.0,0.28757,-0.04798,0.14379,-0.28756,0.169368057
YRHRIQCWCFGUEQ-UHFFFAOYNA-N,1-octanol,212.266,221.762,-24749.712,-1556.6211785714258,236.332,3.10427,9.115,11.847,-0.58563,-0.79648,-0.58563,0.58864,-0.59582,-0.863821772
MWPLVEDNUUSJAV-UHFFFAOYNA-N,1-octanol,178.233,211.323,-21531.471999999994,708.0464571428638,236.332,3.10427,8.950999999999999,11.048000000000002,0.0,-1.63319,-0.19753,0.16993,0.0,-1.846848358
PJANXHGTPQOBST-VAWYXSNFNA-N,cyclooctane,180.249,233.489,-24117.870000000003,-684.5037777777798,236.332,3.10427,9.838,13.189,0.0,-1.8304,-0.18427,0.15521,0.0,-0.83541801
WJFKNYWRSNBZNX-UHFFFAOYNA-N,water,199.27,217.299,-24960.748,-1714.1280000000006,236.332,3.10427,11.271,12.082,0.0,-1.23098,-0.39858,0.30155,-0.4404599999999999,-5.245918974
FBPFZTCFMRRESA-FBXFSONDNA-N,1-butanol,182.173,197.087,-26622.656000000003,-392.5284000000065,208.527,3.07045,11.664,13.696000000000002,-3.49622,0.15075,-0.59824,0.35379,-3.49622,-1.917743229
WJUFSDZVCOTFON-UHFFFAOYNA-N,chloroform,166.176,200.026,-25697.864,-2699.315833333334,208.527,3.07045,10.431,8.243,-1.27686,-0.33402,-0.54812,0.43553,-1.27686,0.75542258
XVOYSCVBGLVSOL-UDYUCESTNA-N,water,169.152,160.758,-23884.602000000003,-951.5760000000046,208.527,3.07045,11.442,14.532,-3.75328,-0.20339,-0.97185,2.54067,-1.7551100000000002,-0.487425012
NCOSMKWGNCJPCR-YLHGWYNBNA-N,dmso,549.111,543.416,-46329.18400000001,-432.06400000000576,665.661,9.60968,7.302,9.772,-1.24178,-3.28091,-0.62763,0.65278,-2.20407,-0.420216403
MWOOGOJBHIARFG-UHFFFAOYNA-N,acetonitrile,152.149,179.729,-23021.996,-925.6846000000004,177.52599999999998,6.41962,11.723,10.544,-1.43954,-0.0972299999999999,-0.5779,0.4519,-1.43954,0.372896407
SQNZJJAZBFDUTD-UHFFFAOYNA-N,heptane,134.221,191.504,-23585.236,-1116.5854193548366,195.67200000000005,0.000996137,11.539,12.776,0.0,-2.2644800000000003,-0.4811,0.1647,0.0,0.161066582
KDYFGRWQOYBRFD-AOTPWWKUNA-N,2-propanol,118.089,144.169,-21261.064,-467.01257142857503,195.67200000000005,0.000996137,10.548,14.718,-2.17847,0.6095900000000001,-0.60543,0.67276,-2.17847,-0.414664104
YLQWCDOCJODRMT-UHFFFAOYNA-N,1-decanol,180.206,204.757,-22289.77,-472.48627906976617,195.67200000000005,0.000996137,8.895000000000001,12.328,-0.54239,-0.80379,-0.54239,0.59182,-0.54239,-0.37675071
OFJWFSNDPCAWDK-WXRBYKJCNA-N,hexane,164.204,201.995,-24207.72,-327.1560000000027,212.789,2.1803600000000003,11.022,14.105,-1.04212,-1.01329,-0.55567,0.61791,-1.04212,0.541579244
DFXQXFGFOLXAPO-KZFATGLANA-N,2-ethoxyethanol,201.566,197.311,-24541.352,-1274.4706470588244,201.524,3.75852,8.036,12.813,-2.00637,0.21063,-0.58084,0.86217,-1.17129,-0.168655297
CMWTZPSULFXXJA-GTNTULIANA-N,1-butanol,230.263,261.442,-28000.024,-314.07977142856544,201.524,3.75852,9.319,11.619,-1.48734,-1.10527,-0.60276,0.64112,-1.48734,-0.765425809
BMLIZLVNXIYGCK-WXRBYKJCNA-N,toluene,198.652,225.756,-25381.016,-1485.258551724135,201.524,3.75852,9.012,9.359,-0.61194,-0.39885,-0.61194,0.67642,-1.55688,-1.970000002
VGEREEWJJVICBM-UHFFFAOYNA-N,1-propanol,274.273,291.506,-30041.564,186.350400000003,201.524,3.75852,9.555,11.987000000000002,-2.56097,-0.74739,-0.64457,0.66748,-2.56097,-0.396522966
RJKGJBPXVHTNJL-UHFFFAOYNA-N,2-pentanol,173.171,192.048,-22434.882,-284.36687804877874,197.675,7.04799,8.753,12.242,-1.0116,-1.06523,-0.50759,0.85725,-0.15435,-0.529295556
UMGDCJDMYOKAJW-UBUOBULFNA-N,water,76.116,105.114,-17120.478,57.79240000000209,197.675,7.04799,11.699,13.724,0.0,0.50948,-0.82366,0.50948,-1.71145,0.32
RCINICONZNJXQF-GXKQXQCDNA-N,methanol,853.918,695.256,-63467.672000000006,997.9349999999904,197.675,7.04799,9.469,12.688,-7.48653,-1.7062100000000002,-0.65233,0.70535,-7.96136,-1.920818754
BOCJQSFSGAZAPQ-UHFFFAOYNA-N,1-chlorobutane,242.661,236.9,-25917.248,-745.7786530612248,256.833,1.76675,8.479,11.08,-1.056,-0.13865,-0.53267,0.56337,-1.11881,-1.436286855
WBYWAXJHAXSJNI-KZFATGLANA-N,dichloromethane,148.161,186.426,-22805.812,-546.2763750000013,181.094,4.41572,9.921,9.887,-1.10143,-0.44671,-0.61665,0.6795,-1.10143,-0.161150909
ZNNLBTZKUZBEKO-PLJOYGPPNA-N,methanol,494.004,500.804,-43108.734,-1209.5999999999983,181.094,4.41572,9.609,12.221,-3.67303,-1.88254,-0.9748,2.57508,-3.02351,-4.419580528
MSWPGMRTURVKRJ-UHFFFAOYNA-N,thf,211.263,258.981,-27314.17,-1648.487000000001,263.476,1.75289,8.988,11.587000000000002,-0.38596,-1.39388,-0.39049,0.36884,-0.7717400000000001,0.51375015
DNKGZSOYWMQDTK-KZFATGLANA-N,1-heptanol,281.093,250.924,-27826.534,-2237.449999999997,263.476,1.75289,8.995000000000001,12.955,-0.92287,-0.66655,-0.62265,0.69311,-1.422,0.198260559
AFPHTEQTJZKQAQ-BGGKNDAXNA-N,ethanol,167.121,179.627,-23358.122000000003,-1541.2542222222255,176.19099999999997,7.788,8.739,13.694,-2.09621,0.1069,-0.59756,0.86535,-1.23086,0.40665751
ZEYHEAKUIGZSGI-BGGKNDAXNA-N,thf,152.149,180.582,-23165.626,-1679.1040689655165,176.19099999999997,7.788,8.784999999999998,11.991,-1.48113,-0.0963799999999999,-0.61821,0.68235,-1.48113,-0.15490196
GVEPBJHOBDJJJI-UHFFFAOYNA-N,1-butanol,202.255,227.244,-23061.778,-497.8582040816291,176.19099999999997,7.788,8.908,11.686,0.0,-1.64843,-0.15678,0.16773,0.0,-0.968995719
BMLIZLVNXIYGCK-WXRBYKJCNA-N,cyclohexane,198.652,226.211,-25472.776,-1577.0185517241334,229.944,6.17827,10.343,13.043,-0.60223,-0.3926299999999998,-0.60223,0.6749,-1.54852,-3.330000131
SJEBAWHUJDUKQK-UHFFFAOYNA-N,"2,2,4-trimethylpentane",236.27,258.653,-27136.708,-644.9997599999988,229.944,6.17827,8.997,14.215,-1.00477,-0.96373,-0.50612,0.53847,-1.00477,-1.818000008
GVIJJXMXTUZIOD-UHFFFAOYNA-N,2-pentanol,216.315,223.654,-23772.498000000003,-773.8603157894759,239.68,2.11254,9.735,11.616,0.0,-1.29305,-0.14233,0.17658,-0.09043,-1.719667025
FJKROLUGYXJWQN-BGGKNDAXNA-N,1-pentanol,138.123,160.87,-21797.058,-959.1647142857108,239.68,2.11254,9.524,12.634,-1.58515,0.13447,-0.61871,0.68303,-1.58515,-0.076238039
HEFNNWSXXWATRW-YHMJCDSINA-N,dichloromethane,206.284,256.921,-28214.045999999995,-218.3940645161274,239.68,2.11254,10.932,9.559,-1.09101,-1.97298,-0.5978,0.63899,-1.09101,0.449727966
JTEGQNOMFQHVDC-IRNSGEEPNA-N,2-propanol,229.253,231.828,-26796.302,-1035.6963999999898,239.68,2.11254,9.834,12.622,-1.64942,0.85303,-0.64649,0.71511,-3.28973,-1.565006425
YGSDEFSMJLZEOE-BGGKNDAXNA-N,2-propanol,138.123,157.285,-21705.224,-558.4114000000009,239.68,2.11254,9.559,12.731000000000002,-1.58798,0.1512099999999999,-0.6285,0.69482,-1.58798,0.385772333
WHUUTDBJXJRKMK-IQTGVIGANA-N,methanol,147.13,170.652,-23763.476,-668.3911999999982,239.68,2.11254,10.374,13.186,-2.16509,0.5459399999999999,-0.61588,0.66323,-2.71801,-2.986172197