InChIkey,Solvent,MW,SASA,G_sol,DeltaG_sol,Volume,sol_dip,LsoluHsolv,LsolvHsolu,O_charges,C_charges,Most_neg,Most_pos,Het_charges,LogS
XRHGYUZYPHTUJZ-BGGKNDAXNA-N,2-propoxyethanol,156.568,170.601,-22562.608,-1161.7473333333328,144.24200000000002,3.23071,8.783999999999999,11.928,-1.07856,0.07032,-0.59763,0.66556,-1.1661,-0.570138781
JDCMOHAFGDQQJX-UHFFFAOYNA-N,heptane,272.097,214.933,-25503.476,135.24619999999777,144.24200000000002,3.23071,8.86,13.909,0.0,0.61139,-0.08247,0.11834,-0.61141,-0.145601254
XRHGYUZYPHTUJZ-BGGKNDAXNA-N,1-pentanol,156.568,170.601,-23536.930000000004,-2136.0693333333365,167.556,2.02425,9.23,12.934,-1.08397,0.07252,-0.60346,0.66834,-1.17253,-0.855212533
QFOHBWFCKVYLES-UHFFFAOYNA-N,acetonitrile,194.23,240.11,-26997.484,-927.9890769230806,242.268,4.53229,12.029,11.108,-1.52701,-0.91987,-0.61619,0.69056,-1.52701,0.400019635
GPSDUZXPYCFOSQ-BGGKNDAXNA-N,2-methyl-1-propanol,136.15,169.954,-21880.446,-686.8610857142849,164.709,4.09195,9.368,12.754,-1.09203,-0.48968,-0.60978,0.65891,-1.09203,0.147192353
NVKJOXRVEKMMHS-UHFFFAOYNA-N,methanol,128.047,130.739,-21008.936,-1654.4214285714295,164.709,4.09195,6.165,14.857,-1.04321,0.55925,-0.4173,0.85635,-0.55925,-0.410326455
GVEPBJHOBDJJJI-UHFFFAOYNA-N,ethanol,202.255,227.244,-23069.91,-505.99020408162687,164.709,4.09195,9.097,11.693,0.0,-1.6528,-0.15708,0.16815,0.0,-1.037157319
VYWYYJYRVSBHJQ-KZFATGLANA-N,2-methyl-1-propanol,212.118,207.639,-25324.874,-1419.1132592592585,164.709,4.09195,8.075,14.451,-3.01676,0.2840399999999999,-0.57706,0.87465,-1.268,-0.632602616
ROAXLGSFGIOFMH-UHFFFAOYNA-N,toluene,296.343,299.608,-28371.998,440.9276666666701,334.789,4.46631,8.381,9.844,-0.53138,-0.98674,-0.35575,0.30861,-1.21221,-1.092298103
JZFPYUNJRRFVQU-VEWCPZSHNA-N,water,282.222,277.241,-29727.862000000005,-1590.770631578951,292.409,5.62567,10.565,13.036,-1.09635,0.58814,-0.62168,0.7058,-2.55059,-3.947844422
BMLIZLVNXIYGCK-WXRBYKJCNA-N,decane,198.652,226.061,-25453.304,-1557.5465517241355,292.409,5.62567,10.559,13.036,-0.60219,-0.3928999999999999,-0.60219,0.67494,-1.54851,-3.390000296
JZFDKGFWNSQAHU-GPQMBLKYNA-N,n-methyl-2-pyrrolidone,254.285,281.51,-29933.326000000005,-526.6427999999978,308.226,7.80913,8.179,11.135,-1.62934,-0.8939199999999999,-0.58536,0.65688,-1.62934,0.276628237
KGCNHWXDPDPSBV-UHFFFAOYNA-N,chloroform,171.583,186.214,-22637.432,-2026.5178461538453,308.226,7.80913,9.644,9.895,-1.00764,-0.8076,-0.50393,0.84592,-0.30576,0.436911202
DKYWVDODHFEZIM-GPQMBLKYNA-N,2-butanol,254.285,285.806,-30367.764000000003,-1537.8522222222164,308.226,7.80913,9.29,13.053,-1.67058,-0.90628,-0.59949,0.64096,-1.67058,0.12854616
SKZKKFZAGNVIMN-FSHFIPFONA-N,2-isopropoxyethanol,137.138,161.144,-21225.238000000005,-726.0261176470594,308.226,7.80913,9.136,11.407,-1.1810200000000002,0.0591099999999999,-0.67683,0.6416,-1.70396,-0.041662094
HEFNNWSXXWATRW-YHMJCDSINA-N,cyclohexane,206.284,257.019,-28140.620000000003,-144.9680645161352,308.226,7.80913,10.67,13.537,-1.04567,-1.94491,-0.56639,0.61768,-1.04567,0.03588266
LINPIYWFGCPVIE-UHFFFAOYNA-N,water,197.448,183.865,-22430.472,200.3704999999973,308.226,7.80913,10.837,13.472,-0.45273,-0.1556,-0.45273,0.35677,-0.60472,-2.33999999
GFLHGSIWKATBCA-UHFFFAOYNA-N,methanol,304.398,245.026,-27461.818,-1895.403428571426,308.226,7.80913,9.498,12.65,-0.41458,-0.40404,-0.41458,0.20685,-0.70663,-0.620960662
CKAPSXZOOQJIBF-UHFFFAOYNA-N,1-butanol,284.784,220.81,-23576.182,1947.8158571428576,239.638,0.00321476,8.893999999999998,12.838,0.0,0.06404,-0.01085,0.01079,-0.06404,-2.139661993
BOCJQSFSGAZAPQ-UHFFFAOYNA-N,methylcyclohexane,242.661,236.9,-25836.958,-665.4886530612275,239.638,0.00321476,8.67,14.257,-0.97693,-0.1911299999999999,-0.49593,0.53988,-1.02553,-2.432046716
NUVBSKCKDOMJSU-UHFFFAOYNA-N,1-octanol,166.176,200.303,-25116.668,-741.3369090909109,198.96,1.5157200000000002,9.672,12.582999999999998,-1.5188,-0.38364,-0.60865,0.68832,-1.5188,0.014069144
SXYIRMFQILZOAM-HVNFFKDJNA-N,1-propanol,298.378,292.188,-31209.466,2122.874499999991,359.178,4.97377,9.413,12.991,-2.02052,-2.08128,-0.56456,0.5087,-2.02052,0.019757409
VGEREEWJJVICBM-UHFFFAOYNA-N,1-pentanol,274.273,281.703,-30385.334,-157.41959999999744,313.965,3.54984,9.587,11.976,-2.5479,-0.7473800000000002,-0.64907,0.67306,-2.5479,-0.550136891
BOCJQSFSGAZAPQ-UHFFFAOYNA-N,butyronitrile,242.661,236.9,-25961.518,-790.0486530612216,313.965,3.54984,10.017,11.428,-1.08154,-0.1209399999999999,-0.54427,0.57069,-1.14927,-1.231410096
ISAOCJYIOMOJEB-UHFFFAOYNA-N,1-octanol,212.248,240.197,-26997.548,-1325.775315789473,313.965,3.54984,9.384,12.561,-1.08736,-1.06247,-0.54949,0.51133,-1.08736,-1.735599733
OLOOJGVNMBJLLR-UHFFFAOYNA-N,ethanol,270.284,297.3,-30375.156000000003,-612.6020000000026,313.965,3.54984,9.136,11.898,-1.5803,-0.9517,-0.56554,0.70747,-1.5803,-1.516898021
RJKGJBPXVHTNJL-UHFFFAOYNA-N,2-propanol,173.171,192.048,-22436.752,-286.23687804878136,313.965,3.54984,8.891,12.361,-1.01563,-1.06686,-0.50959,0.85905,-0.15658,-0.559386027
QYSPLQLAKJAUJT-HCKMINDGNA-N,"1,2-propanediol",331.345,309.786,-31669.052,-934.905999999999,313.965,3.54984,8.945,11.578,-2.96904,-0.71294,-0.9801,2.50648,-1.93147,-2.448916143
PJANXHGTPQOBST-VAWYXSNFNA-N,dodecane,180.249,234.203,-25497.634,-2064.267777777779,313.965,3.54984,10.418,13.081,0.0,-1.84635,-0.18828,0.16144,0.0,-1.122285645
NCOSMKWGNCJPCR-YLHGWYNBNA-N,ethanol,549.111,532.705,-45819.74600000001,77.37399999999616,676.064,3.998650000000001,9.316,11.807,-1.24563,-3.33153,-0.6268,0.63212,-2.20787,-1.22184875
VLYWMPOKSSWJAL-YAQRNVERNA-N,dmso,280.301,270.655,-29525.464,-247.179416666666,676.064,3.998650000000001,7.12,10.177,-2.25676,-1.00718,-0.96391,2.5431,-1.44744,0.338857374
MWPLVEDNUUSJAV-UHFFFAOYNA-N,chlorocyclohexane,178.233,211.323,-21528.514000000003,711.0044571428552,676.064,3.998650000000001,8.919,9.414,0.0,-1.62248,-0.19684,0.16878,0.0,-1.27951476
BOCJQSFSGAZAPQ-UHFFFAOYNA-N,thf,242.661,236.9,-25942.102,-770.6326530612241,256.833,1.83835,7.463999999999999,12.418,-1.07099,-0.12831,-0.5395,0.56768,-1.13667,-0.626299369
PYZRQGJRPPTADH-KGJHZMDYNA-N,water,256.094,243.329,-27164.034000000003,-1577.0040000000045,256.833,1.83835,10.394,13.848,0.0,0.28321,-0.53617,0.40759,-1.99398,-3.13667714
VLYWMPOKSSWJAL-YAQRNVERNA-N,"1,4-dioxane",280.301,280.148,-29439.152,-160.86741666666785,256.833,1.83835,8.554,10.812,-2.22948,-0.96172,-0.96058,2.52787,-1.38054,-0.568253037
VYWYYJYRVSBHJQ-KZFATGLANA-N,2-propoxyethanol,212.118,207.701,-25235.302,-1329.5412592592584,208.414,4.32938,7.678999999999999,13.364,-2.99098,0.26947,-0.5692,0.87037,-1.2509200000000005,-0.040033081
DGBIGWXXNGSACT-GPQMBLKYNA-N,water,315.715,294.218,-30308.112,-255.71199999998865,208.414,4.32938,9.927,13.890999999999998,-1.6392099999999998,-0.39279,-0.60373,0.8743,-1.63726,-3.978249913
KGCNHWXDPDPSBV-UHFFFAOYNA-N,benzene,171.583,186.257,-22624.432,-2013.5178461538453,208.414,4.32938,7.976000000000001,11.035,-0.97671,-0.81355,-0.48838,0.83328,-0.2751499999999999,0.366961945
WPYMKLBDIGXBTP-FZOZFQFYNA-N,2-propanol,122.123,151.225,-20865.934,-1134.9346500000029,144.06900000000002,3.45238,9.676,13.163,-1.09655,-0.1092899999999999,-0.61292,0.66561,-1.09655,0.43306071
GVIJJXMXTUZIOD-UHFFFAOYNA-N,2-propanol,216.315,223.495,-23500.476,-501.838315789475,144.06900000000002,3.45238,9.869,11.754,0.0,-1.29376,-0.1424,0.17712,-0.0945,-1.87814531
SYTBZMRGLBWNTM-HCKMINDGNA-N,1-octanol,244.265,268.969,-29552.068000000003,-1643.9045000000078,290.266,3.8001,9.732,12.236,-1.07903,-1.16796,-0.60573,0.64083,-1.24003,-0.199990214
FJKROLUGYXJWQN-BGGKNDAXNA-N,1-propanol,138.123,160.929,-22006.88,-1168.9867142857074,290.266,3.8001,9.53,12.631,-1.58867,0.1347,-0.6213,0.6842,-1.58867,0.144885418
XMTQQYYKAHVGBJ-XWKXFZRBNA-N,4-methyl-2-pentanol,233.097,243.142,-26631.236,-1646.5444799999968,250.397,7.16348,9.795,12.058,-0.6602,-0.26232,-0.6602,0.68204,-1.6309,-1.222407967
JWAZRIHNYRIHIV-UHFFFAOYNA-N,chlorobenzene,144.173,175.568,-22007.064,-1084.2084615384629,250.397,7.16348,8.687,8.661,-0.49148,-1.02962,-0.49148,0.34925,-0.49148,-0.646529839
WZWYJBNHTWCXIM-ZTGFOJEANA-N,dichloromethane,337.368,300.8,-30903.564,-121.88666666666904,250.397,7.16348,9.147,9.448,-2.93637,-0.73673,-0.9754,2.53039,-1.54915,-1.323751738
TYFQFVWCELRYAO-FLKJISBTNA-N,acetone,174.196,223.153,-25896.367999999995,129.20400000000882,221.29,3.47963,10.423,12.044,-2.22181,-0.4519699999999998,-0.62346,0.66888,-2.22181,-0.821670142
YGSDEFSMJLZEOE-BGGKNDAXNA-N,2-pentanol,138.123,160.141,-22011.472,-864.6594000000041,221.29,3.47963,9.622,12.594,-1.57395,0.1476699999999999,-0.61514,0.70344,-1.57395,0.216597275
WLJVNTCWHIRURA-PSPNOWEWNA-N,thf,160.169,191.658,-24501.856000000003,-6.545200000000477,221.29,3.47963,9.859,13.687,-2.21978,-0.1710799999999999,-0.62809,0.67361,-2.21978,0.321849748
DFXQXFGFOLXAPO-KZFATGLANA-N,1-butanol,201.566,197.197,-24683.858,-1416.976647058822,201.41,3.78927,8.658999999999999,13.505,-2.01377,0.2147,-0.58498,0.86352,-1.17801,-0.508638306
GVIJJXMXTUZIOD-UHFFFAOYNA-N,1-octanol,216.315,223.643,-23368.846,-370.2083157894704,240.28,2.07545,9.735,11.53,0.0,-1.29252,-0.14219,0.17594,-0.0851,-1.458079694
DFYRUELUNQRZTB-UHFFFAOYNA-N,"1,2-dichloroethane",166.176,198.656,-24465.770000000004,-522.6110000000044,240.28,2.07545,9.852,9.541,-1.44984,-0.55994,-0.63674,0.63212,-1.44984,-0.390405591
GSBSDUZVSCTUKA-PKSOQXRJNA-N,dmso,288.345,308.057,-28955.994,-279.6630666666679,240.28,2.07545,6.968999999999999,9.168,-1.10718,-1.79123,-0.60739,0.66731,-1.10718,0.31462224
YNPNZTXNASCQKK-UHFFFAOYNA-N,"2,2,4-trimethylpentane",178.233,209.472,-22942.026,-560.4461666666684,240.28,2.07545,9.981,12.776,0.0,-1.54024,-0.16841,0.15758,0.0,-0.823908741
YLFRRPUBVUAHSR-RRPFGEQONA-N,methanol,314.467,330.359,-33987.618,-1794.362000000001,240.28,2.07545,10.187,12.137,-1.2469899999999998,-3.57883,-0.64767,0.65032,-1.2469899999999998,-1.695205745
PYHXGXCGESYPCW-YAQRNVERNA-N,thf,212.248,243.889,-26552.704,-700.374857142855,240.28,2.07545,9.351,12.088,-1.07808,-1.10964,-0.58796,0.6504,-1.07808,0.463892989
WTJMJAZVXNFVHB-LBOYIXSDNA-N,ethanol,509.428,500.832,-47094.736,-1484.3169999999882,240.28,2.07545,9.876,11.607,-2.53744,-1.6238600000000003,-0.6053,0.67375,-3.73771,-1.292429824
VLYWMPOKSSWJAL-YAQRNVERNA-N,1-butanol,280.301,280.444,-29939.46,-661.1754166666651,240.28,2.07545,9.05,12.092,-2.2894,-0.9581,-0.98157,2.55412,-1.50036,-2.053598367
HCUARRIEZVDMPT-WXRBYKJCNA-N,water,161.16,184.324,-22811.396,-571.5599999999977,240.28,2.07545,10.665,12.902,-1.08672,-0.27464,-0.59994,0.68119,-1.24452,-2.418099812
RISDZDVHYCURHD-JZUIEBFJNA-N,acetone,877.042,768.609,-70502.478,-1006.0412000000068,240.28,2.07545,8.339,9.201,-6.115,-3.91528,-0.63675,0.71834,-7.38107,-2.052376965
GVEPBJHOBDJJJI-UHFFFAOYNA-N,chlorocyclohexane,202.255,227.244,-23035.422,-471.5022040816293,240.28,2.07545,8.962,9.967,0.0,-1.62665,-0.1556,0.16564,0.0,-0.03370855
GHICCUXQJBDNRN-BGGKNDAXNA-N,acetonitrile,248.02,183.273,-23815.75,-1175.7640000000029,184.922,2.20632,11.566,11.249,-1.08373,0.02148,-0.6058,0.66423,-1.12351,-1.744727495
XZAXQWXHBDKYJI-CMLSCEPHNA-N,benzene,346.276,330.088,-32863.852,-327.0937499999964,184.922,2.20632,8.700000000000001,9.791,-3.5235000000000003,-1.11631,-0.88904,1.59682,-1.92668,-2.374058087
VPHHJAOJUJHJKD-KZFATGLANA-N,2-butoxyethanol,191.013,187.61,-23461.744,-1814.070969696968,184.922,2.20632,8.729999999999999,11.853,-1.06295,0.23418,-0.58684,0.66252,-1.1717,-0.516583439
UFWIBTONFRDIAS-UHFFFAOYNA-N,methylcyclohexane,128.173,165.632,-19431.566,165.21703030303252,184.922,2.20632,9.962,12.964,0.0,-1.2259600000000002,-0.16916,0.15523,0.0,0.067431574
JDCMOHAFGDQQJX-UHFFFAOYNA-N,"1,2-dibromoethane",272.097,214.933,-25519.634,119.08820000000196,228.347,0.00236813,8.498999999999999,9.341,0.0,0.64779,-0.0872,0.12258,-0.6478,-0.160929443
CWRYPZZKDGJXCA-UHFFFAOYNA-N,propionitrile,154.211,187.008,-20859.472,502.45679999999993,192.389,1.67902,11.706,9.884,0.0,-1.65426,-0.29984,0.17137,0.0,-0.087595465
XQXPVVBIMDBYFF-KZFATGLANA-N,ethanol,152.149,180.777,-23203.890000000003,-1304.998750000006,192.389,1.67902,10.339,12.21,-1.6094,-0.23858,-0.60941,0.67811,-1.6094,0.360593414
WMKGGPCROCCUDY-PHEQNACWNA-N,toluene,234.297,291.783,-28659.68,-553.4686666666676,299.235,4.61984,8.106,9.939,-0.55357,-1.69162,-0.55357,0.59282,-0.55357,-0.124360063
GVEPBJHOBDJJJI-UHFFFAOYNA-N,decane,202.255,227.244,-22961.522,-397.6022040816242,243.06,0.256249,9.53,12.821,0.0,-1.558,-0.15731,0.15892,0.0,-0.810509686
YRHRIQCWCFGUEQ-UHFFFAOYNA-N,tert-butylcyclohexane,212.266,221.762,-24062.676,-869.5851785714258,236.332,2.65074,9.254,12.898,-0.53866,-0.8025,-0.53866,0.56473,-0.5336000000000001,-2.408717966
VHNQIURBCCNWDN-PPMNOVJINA-N,methanol,109.13,142.721,-20144.81,242.2023333333418,236.332,2.65074,10.379,12.021,0.0,-0.0283199999999999,-0.58554,0.39301,-1.59844,0.495289966
AFPHTEQTJZKQAQ-BGGKNDAXNA-N,1-hexanol,167.121,179.6,-23010.454,-1193.5862222222204,236.332,2.65074,8.554,13.71,-2.08473,0.10215,-0.58998,0.86244,-1.22229,0.051637672
DFXQXFGFOLXAPO-KZFATGLANA-N,2-propoxyethanol,201.566,197.274,-24455.326,-1188.4446470588264,201.293,7.16262,8.219999999999999,12.438,-1.99856,0.2065,-0.57965,0.8607,-1.16446,-0.230880197
NOCJXYPHIIZEHN-LBOYIXSDNA-N,water,399.396,387.14,-36120.164,-490.1504999999961,201.293,7.16262,10.616,12.678999999999998,-1.76071,-0.55065,-0.64259,0.745,-2.87266,-3.599800599
DKYWVDODHFEZIM-GPQMBLKYNA-N,2-propanol,254.285,281.802,-30059.027999999995,-1229.1162222222083,201.293,7.16262,9.461,13.058,-1.67254,-0.90349,-0.60032,0.6413,-1.67254,0.258783788
ZEYHEAKUIGZSGI-BGGKNDAXNA-N,1-heptanol,152.149,180.463,-23531.45,-2044.9280689655127,178.181,5.3574600000000006,9.608,12.411,-1.47943,-0.0964499999999999,-0.61629,0.68169,-1.47943,-1.045757491
PJANXHGTPQOBST-VAWYXSNFNA-N,2-ethyl-1-hexanol,180.249,233.478,-24238.64,-805.2737777777766,178.181,5.3574600000000006,9.589,11.731000000000002,0.0,-1.906,-0.18941,0.16147,0.0,-1.263849777
WNLRTRBMVRJNCN-AUDIXQRPNA-N,acetophenone,146.143,181.958,-23867.666,-861.1885263157892,178.181,5.3574600000000006,10.216,10.959,-2.21964,0.0802,-0.6261,0.66894,-2.21964,-1.417936637
DTXVKPOKPFWSFF-MDVJYLRGNA-N,acetone,129.549,145.899,-19664.494,226.3795000000028,178.181,5.3574600000000006,8.925,11.01,0.0,-0.0104599999999999,-0.5356,0.27152,-0.94634,-1.347394552
AFPHTEQTJZKQAQ-BGGKNDAXNA-N,2-methyl-1-butanol,167.121,179.6,-23003.212,-1186.344222222222,178.181,5.3574600000000006,8.425,13.709,-2.08415,0.10187,-0.58973,0.86231,-1.2218399999999998,0.002280706
OIGNJSKKLXVSLS-VWUMJDOONA-N,1-octanol,360.449,338.945,-36556.402,-1683.1080000000077,178.181,5.3574600000000006,9.617,12.921,-2.84253,-2.23374,-0.62859,0.63754,-2.84253,-1.619929588
YNPNZTXNASCQKK-UHFFFAOYNA-N,2-butanol,178.233,209.472,-22852.794,-471.21416666666846,178.181,5.3574600000000006,9.428,11.741,0.0,-1.6319,-0.17504,0.1674,0.0,-0.898470574
VAOCPAMSLUNLGC-UHFFFAOYNA-N,peg400,171.155,189.419,-23636.068,-338.4779999999992,193.823,7.35639,8.213000000000001,11.443,-1.58861,-0.70915,-0.56631,0.91908,-1.13523,-1.158999998
SKZKKFZAGNVIMN-FSHFIPFONA-N,2-ethyl-1-hexanol,137.138,160.978,-21274.684,-775.4721176470557,193.823,7.35639,9.524,12.445,-1.17483,0.05938,-0.67251,0.64131,-1.70028,-0.815308569
AIONOLUJZLIMTK-AWEZNQCLNA-N,acetone,302.283,303.946,-30897.634,-980.3485714285598,193.823,7.35639,9.298,9.667,-2.82639,-0.3607699999999999,-0.68137,0.67544,-2.82639,-0.417610796
KZTYYGOKRVBIMI-UHFFFAOYNA-N,octane,218.27,231.717,-26053.462,154.32191666666768,193.823,7.35639,10.483,14.170000000000002,-1.9134,-2.08398,-0.95677,2.42154,0.5081399999999998,-2.386158178
IQPNAANSBPBGFQ-UHFFFAOYNA-N,methanol,286.24,280.661,-28891.662,629.8402499999938,299.751,8.76231,9.183,12.147,-2.84249,0.11729,-0.64543,0.68593,-2.84249,-1.891544284
YSSSPARMOAYJTE-UHFFFAOYNA-N,dmf,360.406,359.619,-35466.42,-452.0190588235273,299.751,8.76231,9.236,10.125,-2.55641,-1.17465,-0.48221,0.23116,-2.55641,-1.251811973
GVEPBJHOBDJJJI-UHFFFAOYNA-N,"2,2,4-trimethylpentane",202.255,227.244,-22959.048000000003,-395.1282040816295,299.751,8.76231,9.518,12.832999999999998,0.0,-1.55392,-0.15737,0.15852,0.0,-1.15490196
IEDVJHCEMCRBQM-CLRGVMNRNA-N,water,290.321,312.843,-32394.712,-925.4437777777785,299.751,8.76231,11.218,13.307,-1.14426,-0.2626599999999999,-0.59987,0.45096,-3.22547,-2.72103337
NIHNNTQXNPWCJQ-UHFFFAOYNA-N,2-pentanol,166.222,200.685,-21521.224,-119.09300000000076,299.751,8.76231,9.884,11.836,0.0,-1.66194,-0.32606,0.18419,0.0,-0.826271721
ZEYHEAKUIGZSGI-BGGKNDAXNA-N,2-butoxyethanol,152.149,180.207,-23445.052,-1958.530068965516,178.01,5.31406,9.315,11.458,-1.47595,-0.09671,-0.61344,0.68041,-1.47595,-0.533457861
HOKCUULFCASAQT-OLAIDOCJNA-N,ethanol,472.669,513.129,-46694.812000000005,-1805.172333333336,178.01,5.31406,9.399,11.714,-1.32528,-4.35584,-0.68664,0.64376,-2.20008,-1.0531195099808612
ZUOUZKKEUPVFJK-UHFFFAOYNA-N,2-isopropoxyethanol,154.211,198.095,-21935.84,-1117.2108148148145,201.279,0.0034234599999999,9.637,11.117,0.0,-1.5923,-0.17882,0.16254,0.0,0.122701449
JZFPYUNJRRFVQU-VEWCPZSHNA-N,dmf,282.222,276.331,-29335.182,-1198.0906315789398,201.279,0.0034234599999999,8.224,10.192,-1.08917,0.5795,-0.61445,0.70266,-2.52955,0.536684673
XMTQQYYKAHVGBJ-XWKXFZRBNA-N,1-butanol,233.097,243.279,-26942.918,-1958.2264799999973,201.279,0.0034234599999999,9.694,12.007,-0.66548,-0.2631,-0.66548,0.68226,-1.63653,-0.890000001
HUPFGZXOMWLGNK-HCKMINDGNA-N,water,250.201,248.516,-27543.302,-520.2695000000022,262.339,2.9732199999999995,10.671,13.422999999999998,-1.58137,0.0212100000000001,-0.59569,0.69481,-1.89782,-4.114000249
WJFKNYWRSNBZNX-UHFFFAOYNA-N,cyclopentanol,199.27,217.299,-25132.512,-1885.892,262.339,2.9732199999999995,9.878,11.128,0.0,-1.2226,-0.3984,0.29823,-0.4327299999999999,-0.614638029
OIGNJSKKLXVSLS-VWUMJDOONA-N,peg400,360.449,338.896,-36314.582,-1441.2880000000075,436.805,8.22508,8.989,11.228,-2.84898,-2.23258,-0.63214,0.63905,-2.84898,-1.222999996
GSBSDUZVSCTUKA-PKSOQXRJNA-N,benzene,288.345,298.883,-28866.014000000003,-189.68306666667195,436.805,8.22508,8.334000000000001,8.459999999999999,-1.06389,-1.71243,-0.57176,0.64552,-1.06389,-1.087309200525424
UJOBWOGCFQCDNV-UHFFFAOYNA-N,chloroform,167.21,198.372,-21885.63,-224.8796000000002,436.805,8.22508,10.902,7.784000000000001,0.0,-1.27236,-0.29181,0.28926,-0.29181,-1.337344814
YLQWCDOCJODRMT-UHFFFAOYNA-N,cyclopentanol,180.206,204.757,-22322.566,-505.2822790697646,212.594,5.2925,8.829,12.454,-0.55284,-0.8042099999999999,-0.55284,0.59648,-0.55284,-0.086186148
MJIHNNLFOKEZEW-PKSOQXRJNA-N,2-propanol,369.361,354.879,-33387.996,-744.7119999999923,393.611,0.629683,9.732,12.021999999999998,-1.17236,-1.22437,-0.81698,1.1866,-1.50261,-1.67524952
ZFXYFBGIUFBOJW-FZOZFQFYNA-N,acetone,180.166,189.784,-23725.582,-958.145846153846,393.611,0.629683,9.484,10.174,-1.20942,0.71603,-0.60581,0.68659,-2.35132,-1.719622092
RJKGJBPXVHTNJL-UHFFFAOYNA-N,octane,173.171,192.125,-22419.138,-268.62287804878,197.458,5.99449,9.344,13.475,-0.95386,-1.03802,-0.47837,0.83042,-0.12344,-0.854941505
WURBFLDFSFBTLW-UHFFFAOYNA-N,2-propanol,210.232,239.927,-25636.552,-625.906204081628,197.458,5.99449,8.827,13.085,-1.01357,-0.6729,-0.50683,0.44995,-1.01357,-0.969999998
GUCYFKSBFREPBC-UHFFFAOYNA-N,hexane,418.471,404.307,-42797.264,-919.9399999999878,197.458,5.99449,10.276,13.771999999999998,-1.73595,-4.27426,-0.85373,1.26857,-0.46738,-1.927305629
DFXQXFGFOLXAPO-KZFATGLANA-N,"1,4-dioxane",201.566,197.247,-24262.54,-995.6586470588264,197.458,5.99449,7.923,12.466,-1.9211,0.1726699999999999,-0.54037,0.84174,-1.0998,0.155336037
XNERWVPQCYSMLC-KZFATGLANA-N,thf,146.145,186.689,-22634.86,-119.57600000000092,197.458,5.99449,8.468,12.345,-1.06333,-0.14135,-0.59703,0.74616,-1.06333,0.6377118
RJKGJBPXVHTNJL-UHFFFAOYNA-N,decane,173.171,192.125,-22419.138,-268.62287804878,197.458,5.9945,9.191,13.544,-0.95386,-1.03802,-0.47837,0.83042,-0.12344,-0.845329456
CWRYPZZKDGJXCA-UHFFFAOYNA-N,cyclooctane,154.211,187.048,-20942.532,419.3968000000023,197.458,5.9945,9.925,12.838,0.0,-1.57084,-0.2929,0.16217,0.0,-0.16093378
BSYNRYMUTXBXSQ-WXRBYKJCNA-N,2-methyl-2-propanol,180.16,198.444,-25414.62,-1240.3381500000069,197.458,5.9945,9.291,13.378,-2.06828,0.32432,-0.60426,0.71206,-2.06828,-0.144480844