InChIkey,Solvent,MW,SASA,G_sol,DeltaG_sol,Volume,sol_dip,LsoluHsolv,LsolvHsolu,O_charges,C_charges,Most_neg,Most_pos,Het_charges,LogS
GVIJJXMXTUZIOD-UHFFFAOYNA-N,undecane,216.315,223.495,-23372.348,-373.7103157894708,201.391,3.84759,10.177,12.59,0.0,-1.27737,-0.13938,0.16844,-0.03392,-1.522878745
BSYNRYMUTXBXSQ-WXRBYKJCNA-N,"3,7-dimethyl-1-octanol",180.16,198.544,-25848.194,-1673.9121500000035,201.391,3.84759,9.116,13.144,-2.0521000000000003,0.3205400000000001,-0.59691,0.70752,-2.0521000000000003,-0.795880017
VYWYYJYRVSBHJQ-KZFATGLANA-N,2-propanol,212.118,207.639,-25350.378,-1444.6172592592557,201.391,3.84759,8.370000000000001,14.514,-3.01978,0.2857699999999999,-0.57799,0.87516,-1.27,-0.359720688
LULAYUGMBFYYEX-BGGKNDAXNA-N,1-propanol,156.568,170.452,-22212.258,-1025.7568571428565,201.391,3.84759,9.249,12.781,-1.0794,0.07196,-0.60098,0.66351,-1.16716,0.041280952
BXAOUWIVXLQYOZ-SPEPDGBUNA-N,dichloromethane,443.542,449.471,-45255.62000000001,-670.2538666666806,201.391,3.84759,10.516,9.564,-2.6253,-2.1773,-0.63849,0.73846,-3.94035,-0.623423043
GFLHGSIWKATBCA-UHFFFAOYNA-N,acetonitrile,304.398,245.042,-27468.884,-1902.469428571425,201.391,3.84759,11.778,11.194,-0.41479,-0.4039899999999999,-0.41479,0.20695,-0.70726,-0.201211112
CMWTZPSULFXXJA-GTNTULIANA-N,"1,2-propanediol",230.263,260.997,-28332.98,-647.0357714285674,201.391,3.84759,9.383,10.994,-1.49222,-1.10573,-0.62309,0.64367,-1.49222,-0.993203685
DDBREPKUVSBGFI-LUXCBXFANA-N,1-octanol,232.238,238.352,-26957.7,-668.9193333333242,268.097,10.0513,8.774,12.971,-1.31312,0.1925699999999999,-0.65505,0.74767,-2.62314,-1.09075749
QPPBRPIAZZHUNT-YAQRNVERNA-N,cyclohexane,264.301,264.891,-27931.17000000001,-175.32000000001062,290.563,8.92546,9.98,13.246,-1.89393,-0.85929,-0.94901,2.51144,-1.5567100000000005,-6.282295387
GVEPBJHOBDJJJI-UHFFFAOYNA-N,2-methyl-1-pentanol,202.255,227.244,-23055.438,-491.51820408162894,290.563,8.92546,8.802999999999999,11.657,0.0,-1.64151,-0.15632,0.16707,0.0,-1.030965484
QFOHBWFCKVYLES-UHFFFAOYNA-N,acetone,194.23,237.989,-27251.13,-1181.6350769230812,290.563,8.92546,9.502,10.396,-1.52578,-0.90959,-0.61268,0.68946,-1.52578,0.546146058
CKAPSXZOOQJIBF-UHFFFAOYNA-N,"2,2,4-trimethylpentane",284.784,220.81,-23576.474,1947.52385714286,239.63,0.000956015,9.28,14.155,0.0,0.02234,-0.00379,0.00376,-0.02234,-1.819587367
UFWIBTONFRDIAS-UHFFFAOYNA-N,ethylbenzene,128.173,165.632,-19441.96,154.82303030303228,239.63,0.000956015,8.596,9.2,0.0,-1.23575,-0.17029,0.15646,0.0,0.375154833
UDUNORRTIFRHKX-LBOYIXSDNA-N,chloroform,495.402,476.008,-45440.584,-816.919000000009,585.904,4.20817,10.75,8.007,-2.47424,-1.33235,-0.58848,0.66794,-3.6428,-1.086186148
GVEPBJHOBDJJJI-UHFFFAOYNA-N,acetonitrile,202.255,227.244,-23072.188,-508.26820408162894,585.904,4.20817,11.353,10.138,0.0,-1.65678,-0.15735,0.16853,0.0,-0.616184634
ALYNCZNDIQEVRV-BGGKNDAXNA-N,cyclohexane,137.138,165.819,-22384.942,-1484.006275862066,159.89999999999998,4.58063,10.046,13.332,-1.06548,0.03013,-0.57512,0.65908,-1.55226,-2.1124032833770494
MFFDJRYGVWMCQY-UHFFFAOYNA-N,methanol,224.305,278.78,-27813.777999999995,-666.8806666666533,289.328,5.6008700000000005,10.114,11.08,0.0,-1.94477,-0.41177,0.30702,-0.68089,-0.872895202
WJFKNYWRSNBZNX-UHFFFAOYNA-N,hexane,199.27,217.26,-24323.592,-1076.971999999998,289.328,5.6008700000000005,10.67,12.282,0.0,-1.16713,-0.39576,0.27855,-0.39061,-2.338018928
YASYVMFAVPKPKE-JSWHHWTPNA-N,2-propanol,183.162,189.972,-25709.596,-694.0748000000058,289.328,5.6008700000000005,9.994,13.135000000000002,-2.12954,-0.545,-0.9068,1.64487,-1.51182,-0.121478204
NIHNNTQXNPWCJQ-UHFFFAOYNA-N,2-butanol,166.222,200.685,-21649.236000000004,-247.1050000000032,289.328,5.6008700000000005,9.842,11.965,0.0,-1.66459,-0.32622,0.18449,0.0,-0.887823016
VFVHWCKUHAEDMY-UHFFFAOYNA-N,thf,185.566,187.804,-23041.038,-1245.9817142857137,289.328,5.6008700000000005,7.627999999999999,12.941,-1.54989,-0.0082899999999999,-0.53985,0.86698,-0.7306600000000001,0.445166466
PJANXHGTPQOBST-VAWYXSNFNA-N,1-pentanol,180.249,233.288,-24221.15,-787.783777777775,289.328,5.6008700000000005,9.632,11.694,0.0,-1.92226,-0.19055,0.16289,0.0,-1.198183392
XMTQQYYKAHVGBJ-XWKXFZRBNA-N,3-methyl-1-butanol,233.097,243.259,-26951.352,-1966.6604799999984,251.273,9.03943,9.532,12.111,-0.66274,-0.26454,-0.66274,0.68077,-1.63246,-1.008958007
NIHNNTQXNPWCJQ-UHFFFAOYNA-N,3-methyl-1-butanol,166.222,200.685,-21655.784,-253.65299999999843,251.273,9.03943,9.676,11.945,0.0,-1.66283,-0.32611,0.18431,0.0,-0.874604121
ALYNCZNDIQEVRV-BGGKNDAXNA-N,2-butanol,137.138,165.992,-21713.300000000003,-812.3642758620699,159.658,5.42612,9.705,12.192,-1.11993,0.0234,-0.62811,0.68403,-1.61757,-0.519993057
FOCAUTSVDIKZOP-JLSKMEETNA-N,methanol,94.4975,111.093,-18645.056,-2012.2003333333305,95.8474,3.56998,10.454,14.08,-1.0681,0.34172,-0.58403,0.65949,-1.16979,0.975419893
PJANXHGTPQOBST-VAWYXSNFNA-N,methylcyclohexane,180.249,233.464,-24129.166,-695.7997777777746,95.8474,3.56998,10.054,13.038,0.0,-1.8304,-0.18427,0.15521,0.0,-0.953391368
PBZQTKRWYXTXIS-YQFGMCEENA-N,thf,464.606,446.172,-43184.076,-819.6426666666594,593.904,7.38639,8.45,11.184,-1.2926,-3.38184,-0.66409,0.6543,-2.15891,-0.381630629
ZQBAKBUEJOMQEX-UHFFFAOYNA-N,1-propanol,214.22,238.756,-26348.064,-347.101749999998,246.9,3.65381,9.336,12.516000000000002,-1.47943,-0.45914,-0.59334,0.70501,-1.47943,0.227260531
CMWTZPSULFXXJA-GTNTULIANA-N,1-decanol,230.263,260.891,-28114.366,-428.4217714285696,246.9,3.65381,9.408,11.641,-1.4727,-1.09336,-0.60847,0.63764,-1.4727,-1.070581074
SQNZJJAZBFDUTD-UHFFFAOYNA-N,methanol,134.221,191.326,-22329.748,138.90258064516456,246.9,3.65381,10.782,11.674,0.0,-2.35721,-0.49177,0.17158,0.0,-0.607441088
GVEPBJHOBDJJJI-UHFFFAOYNA-N,cyclohexane,202.255,227.244,-22961.522,-397.6022040816242,246.9,3.65381,9.314,12.828,0.0,-1.55798,-0.15731,0.15892,0.0,-0.783306401
QPPBRPIAZZHUNT-YAQRNVERNA-N,acetonitrile,264.301,268.381,-28276.17,-520.320000000007,246.9,3.65381,12.138,10.441,-1.97872,-0.87527,-0.99239,2.56684,-1.66259,-1.668621084
YVUQSNJEYSNKRX-VJSLDGLSNA-N,methanol,461.553,465.816,-40009.318,-949.3151249999936,246.9,3.65381,10.123,11.459,-0.65502,-2.62492,-0.65502,0.63367,-2.13139,-1.70806275
RXKNNAKAVAHBNK-UHFFFAOYNA-N,2-pentanol,140.098,154.652,-20192.506,1335.697684210529,246.9,3.65381,8.417,13.094,-1.61322,-0.73777,-0.60636,0.87231,-0.1296699999999999,-1.779891912
BBYDXOIZLAWGSL-BGGKNDAXNA-N,thf,140.114,158.548,-21792.42,-1191.3220000000038,152.857,2.03693,8.53,12.802,-1.08636,0.14168,-0.60395,0.67277,-1.24738,0.396199347
YSSSPARMOAYJTE-UHFFFAOYNA-N,chloroform,360.406,361.532,-35228.512,-214.1110588235315,152.857,2.03693,11.172,8.615,-2.55853,-1.07763,-0.47593,0.18347,-2.55853,-0.677780705
YLQWCDOCJODRMT-UHFFFAOYNA-N,1-butanol,180.206,204.757,-22313.344,-496.0602790697667,152.857,2.03693,8.796999999999999,12.294999999999998,-0.55471,-0.8043399999999999,-0.55471,0.5973,-0.55471,-0.431798276
VLYWMPOKSSWJAL-YAQRNVERNA-N,ethanol,280.301,270.732,-28936.182000000004,342.1025833333297,152.857,2.03693,9.203,12.096,-2.26502,-1.00398,-0.96845,2.5478,-1.46173,-1.615567291
UJOBWOGCFQCDNV-UHFFFAOYNA-N,water,167.21,197.543,-21975.44,-314.6896000000052,152.857,2.03693,11.248,12.491,0.0,-1.32411,-0.28677,0.3004,-0.28677,-4.969999718
ISAOCJYIOMOJEB-UHFFFAOYNA-N,p-xylene,212.248,245.272,-26546.278,-874.5053157894727,152.857,2.03693,8.107000000000001,10.379,-1.02906,-1.05912,-0.52698,0.49669,-1.02906,-1.4248609
LXCFILQKKLGQFO-UHFFFAOYNA-N,dmf,152.149,181.654,-22951.918,-1354.0782222222224,177.482,4.42246,8.695,10.917,-1.48899,-0.0951,-0.60788,0.68099,-1.48899,0.652932862
YVUQSNJEYSNKRX-VJSLDGLSNA-N,benzene,461.553,477.487,-39738.062,-678.0591249999925,554.479,3.4432400000000003,9.362,9.255,-0.59046,-2.56936,-0.59046,0.63186,-2.02813,-2.071587094
AFPHTEQTJZKQAQ-BGGKNDAXNA-N,2-propanol,167.121,179.6,-23043.694,-1226.826222222222,554.479,3.4432400000000003,8.764,13.816,-2.09326,0.1062399999999999,-0.59367,0.8644,-1.22886,0.314727792
FJKROLUGYXJWQN-BGGKNDAXNA-N,dmso,138.123,160.87,-21828.21,-990.3167142857092,155.071,2.49982,7.606,10.784,-1.5817,0.1340199999999999,-0.6161,0.68185,-1.5817,0.434455604
GVIJJXMXTUZIOD-UHFFFAOYNA-N,2-butanol,216.315,223.495,-23495.120000000003,-496.4823157894753,239.588,2.13051,9.693,11.749,0.0,-1.29343,-0.14234,0.17688,-0.09256,-1.746769394
ROAXLGSFGIOFMH-UHFFFAOYNA-N,ethanol,296.343,305.416,-28846.994,-34.0683333333327,332.98100000000005,3.73138,9.545000000000002,12.458,-0.53237,-0.9734,-0.40784,0.33333,-1.32772,-0.235068532
VRPJIFMKZZEXLR-DEPUQRHONA-N,acetonitrile,175.184,211.383,-27179.592,-797.372615384611,212.292,4.36797,12.646,11.865,-2.24581,-0.0392299999999999,-0.66429,0.75136,-2.7034,0.390935107
RGGYLRDGJAJICY-ZYMSVLFVNA-N,dmf,504.627,492.191,-43859.688,-667.8015000000014,628.1719999999999,6.47565,8.367,9.871,-1.48832,-3.0545400000000003,-0.65053,0.63241,-2.32119,-0.568636236
YRHRIQCWCFGUEQ-UHFFFAOYNA-N,"1,4-dioxane",212.266,221.762,-24102.662,-909.5711785714228,628.1719999999999,6.47565,8.525,10.643,-0.54277,-0.80209,-0.54277,0.56694,-0.53911,-1.154598004
GVEPBJHOBDJJJI-UHFFFAOYNA-N,toluene,202.255,227.244,-22967.358,-403.4382040816272,243.069,0.271639,7.983,9.146,0.0,-1.57151,-0.15713,0.16026,0.0,0.010299957
GVIJJXMXTUZIOD-UHFFFAOYNA-N,2-ethyl-1-hexanol,216.315,223.495,-23467.370000000003,-468.7323157894753,243.069,0.271639,9.629,11.556,0.0,-1.29084,-0.1418,0.17527,-0.08045,-1.582386748
MFYSYFVPBJMHGN-ZPOLXVRWNA-N,water,360.449,339.782,-36544.258,-1722.122500000005,437.61,7.47812,11.167000000000002,14.142,-2.86991,-2.30338,-0.6503,0.6449,-2.86991,-3.142500006
FTOAOBMCPZCFFF-XMBMESGPNA-N,1-octanol,184.194,197.396,-25978.472,-2072.4170000000013,437.61,7.47812,9.248,14.074000000000002,-1.60962,0.36332,-0.56794,0.69855,-2.61448,-0.920272918
SQNZJJAZBFDUTD-UHFFFAOYNA-N,octane,134.221,191.089,-23132.632,-663.9814193548336,195.164,0.00119217,11.475,12.789,0.0,-2.26863,-0.48181,0.16504,0.0,0.13378308
MUMGGOZAMZWBJJ-DYKIIFRCNA-N,1-octanol,288.429,301.057,-32314.884,-1517.203000000001,195.164,0.00119217,10.088,13.001,-1.23985,-3.21261,-0.63689,0.64039,-1.23985,-0.44690361
HYZJCKYKOHLVJF-FZOZFQFYNA-N,cyclohexane,118.138,147.573,-19821.106,-347.5748888888884,141.02700000000002,4.17641,10.237,13.294,0.0,-0.51861,-0.35238,0.28467,-0.59926,-2.850491762
BLUAFEHZUWYNDE-NNWCWBAJNA-N,acetonitrile,282.336,272.017,-31123.582,-2232.2683636363618,141.02700000000002,4.17641,11.73,11.668,-2.02487,-1.63281,-0.56649,0.68583,-2.02487,-1.752183071
YSSSPARMOAYJTE-UHFFFAOYNA-N,cyclohexane,360.406,342.817,-35491.41,-477.00905882352527,433.058,2.99771,10.536,12.902,-2.43477,-1.14452,-0.44303,0.22978,-2.43477,-3.173925197
LETVJWLLIMJADE-GLFQYTTQNA-N,ethanol,95.1036,125.838,-18924.112,-549.1872500000027,114.07,5.67514,9.537,12.831,0.0,-0.17446,-0.47759,0.27746,-0.96115,-0.400534453
IQPNAANSBPBGFQ-UHFFFAOYNA-N,1-butanol,286.24,281.515,-29084.352,437.1502499999952,114.07,5.67514,8.984,12.5,-2.84123,0.1362099999999998,-0.6451,0.6839,-2.84123,-1.711693282
BLUAFEHZUWYNDE-NNWCWBAJNA-N,chloroform,282.336,271.606,-30507.024,-1615.7103636363609,114.07,5.67514,10.394,9.573,-1.95875,-1.6387699999999998,-0.56224,0.67218,-1.95875,0.034488519
YNPNZTXNASCQKK-UHFFFAOYNA-N,cyclopentanol,178.233,209.472,-22825.56,-443.9801666666645,219.408,0.0686691,9.419,11.777,0.0,-1.63015,-0.17488,0.1672,0.0,-0.45662084
DWCLXOREGBLXTD-UHFFFAOYNA-N,hexane,176.172,186.42,-23750.448,592.1932857142892,219.408,0.0686691,9.704,15.568,-1.83819,-1.88609,-0.51618,0.7345,-0.3693999999999999,-2.971551571
WLJVXDMOQOGPHL-BGGKNDAXNA-N,dmso,136.15,171.504,-22190.746,-1151.6922222222202,219.408,0.0686691,8.423,10.727,-1.09925,-0.4966399999999999,-0.59979,0.67939,-1.09925,0.802773725
CIWBSHSKHKDKBQ-JLAZNSOCNA-N,1-hexanol,176.126,179.508,-24425.76,-494.7165000000059,219.408,0.0686691,9.284,12.657,-2.88988,0.74405,-0.57973,0.62634,-2.88988,-0.7504592138852458
GPSDUZXPYCFOSQ-BGGKNDAXNA-N,4-methyl-2-pentanol,136.15,170.025,-21877.918,-684.3330857142828,219.408,0.0686691,9.542,12.753,-1.08845,-0.48994,-0.60568,0.65722,-1.08845,0.234666665
BMLIZLVNXIYGCK-WXRBYKJCNA-N,1-propanol,198.652,226.341,-25513.43,-1617.672551724132,219.408,0.0686691,9.952,11.79,-0.6725,-0.4324500000000001,-0.6725,0.68312,-1.60313,-0.779999999
IEDVJHCEMCRBQM-CLRGVMNRNA-N,thf,290.321,310.787,-32290.38,-821.1117777777763,219.408,0.0686691,9.014,11.634,-1.17503,-0.1885899999999999,-0.59101,0.44961,-3.23749,-1.788911888
QQVIHTHCMHWDBS-FLKJISBTNA-N,dmso,166.133,182.642,-24446.766,-1766.9978461538412,181.348,3.22027,7.182,11.55,-2.15706,0.7135700000000001,-0.59867,0.67205,-2.15706,0.473166078
ONUFSRWQCKNVSL-UHFFFAOYNA-N,heptane,334.116,259.662,-29476.564,-57.23020000000543,181.348,3.22027,9.288,14.887,0.0,0.75799,-0.09225,0.16172,-0.75798,-0.094557657
YRHRIQCWCFGUEQ-UHFFFAOYNA-N,chlorocyclohexane,212.266,221.762,-24492.18,-1299.0891785714266,181.348,3.22027,9.088,10.209,-0.57879,-0.7974800000000001,-0.57879,0.58536,-0.5868800000000001,-1.508196405
AVPYQKSLYISFPO-UHFFFAOYNA-N,methanol,140.569,162.168,-20973.562,-1372.0684000000035,181.348,3.22027,9.398,12.805,-0.57313,-0.1926,-0.57313,0.45381,-0.66906,0.550228353
YRHRIQCWCFGUEQ-UHFFFAOYNA-N,butanone,212.266,221.762,-24785.14,-1592.0491785714255,181.348,3.22027,8.783,9.654,-0.59258,-0.79542,-0.59258,0.59192,-0.60486,-1.370497476
PCZOHLXUXFIOCF-BXMDZJJMNA-N,1-octanol,404.545,426.821,-40860.526000000005,-529.2093333333396,181.348,3.22027,10.54,11.782,-2.68899,-3.18203,-0.61612,0.71061,-2.68899,-1.923729506
XSQUKJJJFZCRTK-UBUOBULFNA-N,water,60.0554,88.9308,-17003.368,-867.1534999999967,181.348,3.22027,12.458,14.777,-0.71825,0.66541,-0.71825,0.66541,-1.83156,0.96
XMTQQYYKAHVGBJ-XWKXFZRBNA-N,nonane,233.097,243.361,-26849.754000000004,-1865.062480000004,181.348,3.22027,10.296,13.073,-0.59869,-0.2388899999999999,-0.59869,0.67434,-1.5761500000000002,-3.700000504
WXTMDXOMEHJXQO-KZFATGLANA-N,thf,154.122,166.543,-22965.896,-680.5148571428545,162.582,3.57736,8.274999999999999,11.596,-2.05099,0.39179,-0.61313,0.67906,-2.05099,0.487270607
NCOSMKWGNCJPCR-YLHGWYNBNA-N,toluene,549.111,543.167,-46304.810000000005,-407.6900000000023,162.582,3.57736,8.338,9.135,-1.15719,-3.21758,-0.58504,0.62132,-2.12983,-1.15490196
CMWTZPSULFXXJA-GTNTULIANA-N,acetone,230.263,261.846,-28277.632,-591.6877714285729,278.188,4.87008,9.248,9.352,-1.49281,-1.10426,-0.60385,0.64336,-1.49281,0.013209526
YVUQSNJEYSNKRX-VJSLDGLSNA-N,2-propanol,461.553,476.286,-39360.32800000001,-300.325125000003,551.5640000000001,7.77604,10.187,11.705000000000002,-0.63631,-2.62664,-0.63631,0.64261,-2.12953,-1.840885352
JLKIGFTWXXRPMT-NDKGDYFDNA-N,benzene,253.275,255.203,-28068.208,-642.2497142857137,551.5640000000001,7.77604,9.328,9.674,-1.99204,-1.29818,-0.94309,2.55556,-1.00971,-2.643183566
QGJZLNKBHJESQX-WRDJYESVNA-N,2-propanol,456.707,434.644,-41797.89599999999,-836.0891666666575,605.887,3.92404,10.926,12.741,-1.7299699999999998,-5.75268,-0.64404,0.63038,-1.7299699999999998,-1.895571003
FJKROLUGYXJWQN-BGGKNDAXNA-N,n-methylformamide,138.123,160.93,-21800.898,-963.0047142857112,605.887,3.92404,9.152,10.859000000000002,-1.5819800000000002,0.1336699999999999,-0.61619,0.68192,-1.5819800000000002,0.159611616
MQUYUNNOHCHJQM-UHFFFAOYNA-N,ethanol,234.553,205.223,-23739.264,-523.711499999994,605.887,3.92404,8.540000000000001,13.121,-2.81695,0.0486,-0.51665,0.90665,-0.99342,-1.325188765
LXNHXLLTXMVWPM-UHFFFAOYNA-N,ethanol,169.18,194.276,-24520.604,-950.7084999999934,605.887,3.92404,9.763000000000002,12.529,-1.62864,-0.43322,-0.58702,0.3539,-1.96188,-1.101918875
FAKRSMQSSFJEIM-ABFVFRESNA-N,acetone,217.282,235.283,-28077.268,-204.75433333333785,262.969,6.66683,10.25,9.996,-1.73793,-0.3541399999999999,-0.66368,0.61379,-2.47941,-0.124053675
BONIIQYTWOPUQI-BGGKNDAXNA-N,dichloromethane,192.131,189.978,-23273.406000000003,-509.395999999997,262.969,6.66683,8.742,11.253,-1.95618,0.67878,-0.51179,0.84394,-1.59231,-1.465484027
JNMRHUJNCSQMMB-XWKXFZRBNA-N,peg400,255.309,249.753,-27090.302,-696.2615000000005,262.969,6.66683,8.798,10.312,-1.934,-1.1595,-0.97461,2.49181,-0.7733399999999999,-0.163
FBPFZTCFMRRESA-FBXFSONDNA-N,1-propanol,182.173,194.015,-26899.542,-669.4144000000015,262.969,6.66683,11.675,13.547,-3.48829,0.0757999999999999,-0.59355,0.36212,-3.48829,-1.685582625
ISAOCJYIOMOJEB-UHFFFAOYNA-N,2-butanol,212.248,245.433,-26566.128,-894.3553157894748,262.969,6.66683,9.387,12.969,-1.09071,-1.07829,-0.54716,0.52301,-1.09071,-1.672709986
JNMRHUJNCSQMMB-XWKXFZRBNA-N,cyclohexane,255.309,248.464,-27837.908,-1443.8675000000003,262.969,6.66683,9.683,13.261,-1.88561,-1.07627,-0.95542,2.48013,-0.77875,-6.883571589
DTXVKPOKPFWSFF-MDVJYLRGNA-N,methanol,129.549,145.58,-20052.880000000005,-162.00650000000314,262.969,6.66683,9.261,12.664,0.0,-0.01229,-0.46397,0.28189,-0.95164,-1.042209725
DKYWVDODHFEZIM-GPQMBLKYNA-N,1-octanol,254.285,285.047,-30063.934,-1234.0222222222146,310.035,6.65868,9.358,12.848,-1.65941,-0.90414,-0.59414,0.64004,-1.65941,-0.274770985
DTXVKPOKPFWSFF-MDVJYLRGNA-N,dmf,129.549,146.036,-19739.708,151.1655000000028,310.035,6.65868,8.127,11.516,0.0,-0.0207799999999999,-0.5317,0.269,-0.92742,-0.376673657
CMWTZPSULFXXJA-GTNTULIANA-N,methanol,230.263,260.152,-28204.774,-518.8297714285727,310.035,6.65868,9.531,11.557,-1.49564,-1.10727,-0.60692,0.64421,-1.49564,-0.40077984
AQIXAKUUQRKLND-UHFFFAOYSA-N,dichloromethane,252.337,281.328,-30046.158,-1641.622999999996,310.035,6.65868,11.087,9.154,0.0,-0.73576,-0.51098,0.45508,-2.44728,-2.698970004
RCINICONZNJXQF-GXKQXQCDNA-N,dichloromethane,853.918,672.465,-65373.61,-908.0030000000042,310.035,6.65868,10.187,9.925,-7.30948,-1.74315,-0.61761,0.71351,-7.77824,-1.698970004
YLQWCDOCJODRMT-UHFFFAOYNA-N,2-methyl-2-propanol,180.206,204.757,-22307.4,-490.1162790697672,212.595,5.24367,8.932,12.508,-0.55029,-0.8041600000000001,-0.55029,0.59536,-0.55029,-0.508638306
GECHUMIMRBOMGK-YHMJCDSINA-N,1-octanol,249.287,253.101,-27152.53,-391.1804000000048,212.595,5.24367,10.122,11.896999999999998,-1.97819,-1.10423,-0.99482,2.56977,-1.1358,-3.272579008
XSQUKJJJFZCRTK-UBUOBULFNA-N,dmso,60.0554,89.118,-16603.238,-467.0234999999993,212.595,5.24367,9.136,11.781,-0.6997,0.66322,-0.6997,0.66322,-1.81755,0.708826297
XQXPVVBIMDBYFF-KZFATGLANA-N,toluene,152.149,180.836,-23123.448000000004,-1224.556750000007,212.595,5.24367,9.162,9.699,-1.53294,-0.22763,-0.55615,0.65006,-1.53294,-0.476253533
WMKGGPCROCCUDY-PHEQNACWNA-N,ethanol,234.297,290.794,-29018.074,-911.8626666666604,212.595,5.24367,9.337000000000002,12.507,-0.61249,-1.74032,-0.61249,0.62266,-0.61249,-1.037137737
MWPLVEDNUUSJAV-UHFFFAOYNA-N,2-ethoxyethanol,178.233,211.323,-21532.85,706.6684571428559,212.595,5.24367,8.26,10.42,0.0,-1.6366,-0.19775,0.17028,0.0,-1.527907783
GPSDUZXPYCFOSQ-BGGKNDAXNA-N,sulfolane,136.15,170.266,-22048.14,-854.5550857142844,212.595,5.24367,9.869,10.545,-1.09692,-0.4891899999999999,-0.6151,0.66127,-1.09692,0.124847909
ILUJQPXNXACGAN-BGGKNDAXNA-N,2-methyl-2-propanol,152.149,179.386,-24911.722,-2028.0497837837904,212.595,5.24367,9.742,12.633,-1.47123,-0.07763,-0.61693,0.70299,-1.47123,-0.27572413
IPCSVZSSVZVIGE-HCKMINDGNA-N,2-pentanol,256.428,348.983,-34800.412,-1198.2049999999945,212.595,5.24367,10.706,13.762,-1.1139,-3.57415,-0.61403,0.66395,-1.1139,-0.098541679
PJANXHGTPQOBST-VAWYXSNFNA-N,3-methyl-1-butanol,180.249,233.277,-24195.66,-762.2937777777734,235.521,0.0055022499999999,9.49,11.877,0.0,-1.92181,-0.19046,0.16282,0.0,-1.337540442
RJKGJBPXVHTNJL-UHFFFAOYNA-N,methylcyclohexane,173.171,192.048,-22409.054000000004,-258.5388780487847,235.521,0.0055022499999999,9.034,13.652,-0.95376,-1.03832,-0.47834,0.83014,-0.12362,-0.659811018
DWMREKMVXIFPFM-RWWBHRBBNA-N,dmf,351.394,321.62,-33461.56,-1428.5220833333296,235.521,0.0055022499999999,7.862,9.896,-2.91775,-0.8823300000000001,-0.97648,2.49267,-1.75075,-0.728730683
XNERWVPQCYSMLC-KZFATGLANA-N,dmso,146.145,186.689,-22631.864,-116.58000000000176,174.681,4.85752,7.345,10.948,-1.06333,-0.1412699999999999,-0.59703,0.74616,-1.06333,0.522444234
ZUOUZKKEUPVFJK-UHFFFAOYNA-N,ethylbenzene,154.211,198.05,-21536.112,-717.4828148148117,174.681,4.85752,9.129,9.697,0.0,-1.53935,-0.17297,0.15746,0.0,0.432975432