InChIkey,Solvent,MW,SASA,G_sol,DeltaG_sol,Volume,sol_dip,LsoluHsolv,LsolvHsolu,O_charges,C_charges,Most_neg,Most_pos,Het_charges,LogS
BBEAQIROQSPTKN-UHFFFAOYNA-N,n-methylformamide,202.255,222.477,-22115.514,-7.405014925367141,242.488,0.00154649,8.491,9.277,0.0,-1.65735,-0.17835,0.16727,0.0,-1.020806881
SEEPANYCNGTZFQ-YHMJCDSINA-N,2-propanol,250.275,249.062,-26790.026000000005,830.9156470588205,268.009,9.45779,9.863,12.114,-1.97096,-0.54972,-0.9884,2.55949,-1.5754100000000002,-3.147798761
WPYMKLBDIGXBTP-FZOZFQFYNA-N,peg400,122.123,151.225,-20782.348,-1051.3486500000035,268.009,9.45779,8.911,11.286,-1.09157,-0.10984,-0.60769,0.66323,-1.09157,0.296415573
HXEWMTXDBOQQKO-UHFFFAOYNA-N,ethanol,198.051,198.276,-23154.186,-1470.8179999999993,268.009,9.45779,8.986,12.437,0.0,-0.39596,-0.41434,0.23357,-0.57607,-0.738229674
WZWYJBNHTWCXIM-ZTGFOJEANA-N,ethanol,337.368,299.799,-31775.136,-993.4586666666656,343.187,6.24061,8.565000000000001,12.002,-3.0268,-0.7666200000000001,-0.98971,2.5407,-1.5421999999999998,-3.002609683
RYYVLZVUVIJVGH-UHFFFAOYNA-N,toluene,194.193,206.99,-25568.448,-1626.285666666663,343.187,6.24061,8.658999999999999,9.782,-1.13312,0.30565,-0.56749,0.67423,-2.14079,-1.585026652
WBYWAXJHAXSJNI-KZFATGLANA-N,toluene,148.161,181.449,-22676.016000000003,-416.48037500000646,182.878,3.52142,8.626999999999999,10.216,-1.04912,-0.43547,-0.58192,0.66521,-1.04912,-0.679394393
JTEGQNOMFQHVDC-IRNSGEEPNA-N,acetone,229.253,231.639,-26898.244,-1137.638399999989,244.829,7.71984,9.504,10.242,-1.6482100000000002,0.85231,-0.64621,0.7144,-3.28911,-2.285513742
MSWPGMRTURVKRJ-UHFFFAOYNA-N,ethanol,211.263,259.108,-27135.372000000003,-1469.6890000000058,244.829,7.71984,9.947,12.142,-0.38849,-1.39794,-0.39153,0.36924,-0.7800199999999999,-0.183096161
XNGIFLGASWRNHJ-FLKJISBTNA-N,chloroform,166.133,179.241,-23766.72,-1078.2131428571447,180.737,5.0318700000000005,10.047,9.874,-2.07127,0.64724,-0.56488,0.6489,-2.07127,-0.292429824
CKAPSXZOOQJIBF-UHFFFAOYNA-N,1-propanol,284.784,220.81,-23576.682,1947.3158571428576,239.638,0.00264838,8.919,12.753,0.0,0.06501,-0.011,0.01095,-0.06501,-2.27572413
BSYNRYMUTXBXSQ-WXRBYKJCNA-N,ethanol,180.16,198.423,-25462.696000000004,-1288.4141500000114,239.638,0.00264838,9.354,13.167,-2.07818,0.32658,-0.60985,0.7146,-2.07818,0.215096536
VHHHONWQHHHLTI-UHFFFAOYNA-N,"trans-1,2-dimethylcyclohexane",236.74,176.295,-21899.534,-39.29130434782565,239.638,0.00264838,8.795,15.521999999999998,0.0,0.2954,-0.04927,0.1477,-0.29539,0.081936544
PYHXGXCGESYPCW-YAQRNVERNA-N,methanol,212.248,244.025,-26506.022,-653.6928571428507,263.458,2.64114,10.3,12.529,-1.08501,-1.11727,-0.59501,0.65385,-1.08501,0.102710458
ZUOUZKKEUPVFJK-UHFFFAOYNA-N,1-heptanol,154.211,198.05,-21596.276,-777.6468148148124,201.225,0.00238326,10.1,12.082,0.0,-1.5924,-0.1787,0.16213,0.0,-0.154139515
CWRYPZZKDGJXCA-UHFFFAOYNA-N,acetone,154.211,187.008,-20948.762,413.1667999999991,201.225,0.00238326,9.576,9.2,0.0,-1.65135,-0.29966,0.17105,0.0,-0.066533513
ZEYHEAKUIGZSGI-BGGKNDAXNA-N,2-butanol,152.149,180.163,-23441.144,-1954.6220689655163,177.98,5.42291,9.6,12.65,-1.485,-0.0965499999999999,-0.62066,0.68362,-1.485,-0.886056648
KZTYYGOKRVBIMI-UHFFFAOYNA-N,chlorocyclohexane,218.27,232.089,-26841.723999999995,-633.9400833333275,249.789,7.35823,9.866,11.235,-1.97674,-2.09752,-0.98843,2.45011,0.4733699999999999,-0.681065374
PDMMFKSKQVNJMI-BLQWBTBKNA-N,thf,344.493,361.578,-37551.658,-1858.3139999999985,249.789,7.35823,9.234,12.574,-1.68528,-3.35444,-0.6444,0.66543,-1.68528,0.539961054
BGRJTUBHPOOWDU-QDYITYEQNA-N,n-methyl-2-pyrrolidone,341.424,354.474,-35885.964,-1707.5014285714203,249.789,7.35823,8.546,10.337,-3.01577,-1.8286,-0.98976,2.56834,-2.15167,-0.047364252
TWBYWOBDOCUKOW-FZOZFQFYNA-N,1-propanol,123.111,146.808,-20693.882,-525.6599999999962,139.763,2.07072,9.055,13.420000000000002,-1.05668,0.24979,-0.58583,0.64873,-1.38176,-1.988034473
LXCFILQKKLGQFO-UHFFFAOYNA-N,hexane,152.149,181.863,-22917.89,-1320.050222222224,177.621,3.69517,10.398,14.103000000000002,-1.42134,-0.09112,-0.55903,0.65806,-1.42134,-3.218613753
AZQWKYJCGOJGHM-UHFFFAOYNA-N,cyclohexane,108.096,134.91,-19276.264,-432.4099999999962,125.71,0.0006895289999999,8.318,14.903,-0.92111,0.14208,-0.46056,0.52296,-0.92111,-1.211799164
YJGVMLPVUAXIQN-XVVDYKMHNA-N,ethanol,414.411,383.037,-37854.406,-767.2436666666617,125.71,0.0006895289999999,9.969,11.941,-3.48669,-0.4363599999999999,-0.58685,0.66349,-3.48669,-1.066512712
WURBFLDFSFBTLW-UHFFFAOYNA-N,acetonitrile,210.232,239.885,-25612.314,-601.6682040816304,247.815,0.00493358,11.052,11.411,-1.01836,-0.67198,-0.50923,0.45154,-1.01836,0.02
GKODDAXOSGGARJ-KZFATGLANA-N,ethanol,165.123,173.269,-22308.768,-1042.9432000000015,171.16600000000005,7.35853,8.652000000000001,12.503,-0.9548,0.58679,-0.51514,0.47823,-1.49637,-1.149435731
CWRYPZZKDGJXCA-UHFFFAOYNA-N,1-pentanol,154.211,187.049,-20930.38,431.5488000000041,171.16600000000005,7.35853,9.686,11.374,0.0,-1.6472,-0.29922,0.17057,0.0,-0.537901619
BXAOUWIVXLQYOZ-SPEPDGBUNA-N,dmf,443.542,453.615,-45030.35399999999,-444.98786666666274,171.16600000000005,7.35853,9.076,10.472,-2.60511,-2.20951,-0.63672,0.73264,-3.88807,-0.621602099
XMTQQYYKAHVGBJ-XWKXFZRBNA-N,1-heptanol,233.097,243.34,-26935.618,-1950.9264799999985,251.47000000000003,8.943109999999999,9.705,11.893,-0.65852,-0.26317,-0.65852,0.68029,-1.62814,-0.974553917
YLQWCDOCJODRMT-UHFFFAOYNA-N,toluene,180.206,204.757,-22243.620000000003,-426.3362790697684,212.587,4.38223,7.882,9.818,-0.50166,-0.79974,-0.50166,0.57233,-0.50166,0.336459734
ZPSPULCZMWMHCY-GHUVFRGKNA-N,2-methyl-2-propanol,276.656,254.489,-29007.548000000003,-1013.6356666666688,212.587,4.38223,10.077,12.79,-2.87602,-1.43957,-0.91657,1.84667,-1.12561,-0.616580579
NUVBSKCKDOMJSU-UHFFFAOYNA-N,1-pentanol,166.176,200.369,-25618.144,-1242.812909090906,212.587,4.38223,9.606,12.577,-1.52423,-0.38412,-0.61276,0.69004,-1.52423,0.207543757
IYYZUPMFVPLQIF-UHFFFAOYNA-N,methanol,184.255,204.586,-22097.984,-311.8236666666635,214.093,1.93711,9.72,11.548,0.0,-1.37416,-0.15043,0.17107,0.03098,-1.143646432
ZUOUZKKEUPVFJK-UHFFFAOYNA-N,"trans-1,4-dimethylcyclohexane",154.211,198.095,-21637.582,-818.9528148148165,214.093,1.93711,10.406,13.115,0.0,-1.52948,-0.17207,0.15676,0.0,0.068401136
GVIJJXMXTUZIOD-UHFFFAOYNA-N,heptane,216.315,223.654,-23464.903999999995,-466.2663157894676,214.093,1.93711,10.47,12.567,0.0,-1.27647,-0.13926,0.16806,-0.03156,-1.619698344
GJCOSYZMQJWQCA-UHFFFAOYNA-N,acetonitrile,182.221,210.426,-22737.416,-729.0355121951216,214.093,1.93711,12.522,10.208,-0.36952,-1.34273,-0.36952,0.24828,-0.36952,-0.448012666
RJKGJBPXVHTNJL-UHFFFAOYNA-N,cyclohexane,173.171,192.125,-22419.138,-268.62287804878,197.458,5.9945,8.975,13.551,-0.95386,-1.03803,-0.47837,0.83041,-0.12345,-0.630891341
POULHZVOKOAJMA-NDKGDYFDNA-N,1-propanol,200.32,273.707,-29972.36,-990.6600000000036,197.458,5.9945,10.649,13.659,-1.1181,-2.46813,-0.61804,0.66574,-1.1181,0.368859528
JWAZRIHNYRIHIV-UHFFFAOYNA-N,hexane,144.173,175.568,-22497.646,-1574.790461538465,197.458,5.9945,10.202,13.042000000000002,-0.47301,-0.98779,-0.47301,0.3442,-0.47301,-1.894220772
YLQWCDOCJODRMT-UHFFFAOYNA-N,1-pentanol,180.206,204.757,-22319.306,-502.0222790697662,212.588,5.29443,8.815000000000001,12.214,-0.55293,-0.8043,-0.55293,0.59652,-0.55293,-0.387216143
NUVBSKCKDOMJSU-UHFFFAOYNA-N,acetonitrile,166.176,201.901,-25020.782,-645.4509090909087,212.588,5.29443,12.028,11.104,-1.5261,-0.3758999999999999,-0.62208,0.68449,-1.5261,0.039414119
PEQHIRFAKIASBK-UHFFFAOYNA-N,dmf,320.433,334.775,-34716.95,-3167.609799999991,212.588,5.29443,9.393,10.552,0.0,-3.17756,-0.18777,0.16245,0.0,-2.510000061
FJKROLUGYXJWQN-BGGKNDAXNA-N,benzene,138.123,161.02,-21495.692000000003,-657.7987142857128,155.40200000000002,3.77476,8.908000000000001,10.203,-1.52272,0.12528,-0.5723,0.66114,-1.52272,-1.087309200525424
OTLNPYWUJOZPPA-BGGKNDAXNA-N,2-propanol,167.121,179.704,-23367.944,-1492.3857297297218,176.886,4.53545,8.453,13.66,-2.05683,0.07202,-0.58293,0.84429,-1.21254,-0.958607315
MWOOGOJBHIARFG-UHFFFAOYNA-N,toluene,152.149,179.427,-23648.058,-1551.7466000000022,177.041,5.57407,8.328999999999999,9.619,-1.34701,-0.1089299999999999,-0.51503,0.42058,-1.34701,-0.519993057
UFWIBTONFRDIAS-UHFFFAOYNA-N,acetone,128.173,165.632,-19456.948000000004,139.83503030302745,177.041,5.57407,9.432,9.444,0.0,-1.29274,-0.17722,0.1638,0.0,0.405858526
CWRYPZZKDGJXCA-UHFFFAOYNA-N,2-butanol,154.211,187.049,-20900.718,461.2108000000008,177.041,5.57407,9.709,11.577000000000002,0.0,-1.64856,-0.29931,0.17072,0.0,-0.695752036
HEFNNWSXXWATRW-YHMJCDSINA-N,1-decanol,206.284,253.927,-28770.586000000003,-774.9340645161355,277.155,3.03467,10.397,12.349,-1.08905,-1.9568,-0.61188,0.63882,-1.08905,0.049218023
DAUAQNGYDSHRET-KZFATGLANA-N,1-heptanol,182.176,208.461,-28008.57,-3659.153846153844,277.155,3.03467,9.4,11.842,-1.83196,-0.0623299999999999,-0.60719,0.66738,-1.83196,-1.362000004
PDMMFKSKQVNJMI-BLQWBTBKNA-N,water,344.493,355.143,-36634.288,-940.9440000000031,277.155,3.03467,11.418,14.21,-1.69846,-3.36544,-0.65652,0.67189,-1.69846,-5.36999951
ONUFSRWQCKNVSL-UHFFFAOYNA-N,"cis-1,4-dimethylcyclohexane",334.116,260.826,-29324.662,94.67179999999644,277.155,3.03467,9.024,14.919999999999998,0.0,0.7598,-0.09544,0.16355,-0.7598,-0.100386683
DAUAQNGYDSHRET-KZFATGLANA-N,1-octanol,182.176,208.363,-26168.888,-1819.4718461538432,277.155,3.03467,9.434,11.88,-1.82952,-0.0631999999999999,-0.606,0.66679,-1.82952,-1.409999994
XRHGYUZYPHTUJZ-BGGKNDAXNA-N,1-propanol,156.568,170.601,-22924.196000000004,-1523.3353333333362,277.155,3.03467,9.238,12.93,-1.08633,0.0734499999999999,-0.60603,0.66955,-1.17534,-0.80597421
BGNGWHSBYQYVRX-UHFFFAOYNA-N,chloroform,149.192,191.332,-22807.324,-1141.2162857142866,190.783,7.60498,10.859,7.775,-0.57762,-0.90093,-0.57762,0.45519,-0.83996,0.604226053
MFYSYFVPBJMHGN-ZPOLXVRWNA-N,1-octanol,360.449,337.823,-35157.772,-335.6365000000005,190.783,7.60498,9.866,12.999,-2.83927,-2.30332,-0.62747,0.63663,-2.83927,-1.96620244
BXRFQSNOROATLV-UHFFFAOYNA-N,ethanol,151.121,171.369,-22004.612,581.9309999999969,167.387,4.65892,8.473,13.449,-1.55212,-0.1987999999999999,-0.53918,0.84541,-0.7067100000000001,-20.0
GJCOSYZMQJWQCA-UHFFFAOYNA-N,cyclopentanol,182.221,210.426,-22714.922,-706.5415121951228,218.229,2.15614,10.108,11.909,-0.36691,-1.33511,-0.36691,0.25001,-0.36691,-0.48148606
GPSDUZXPYCFOSQ-BGGKNDAXNA-N,2-methyl-1-pentanol,136.15,170.266,-21990.678,-797.0930857142848,218.229,2.15614,9.33,12.685,-1.08799,-0.48842,-0.60557,0.65702,-1.08799,0.127972362
LXCFILQKKLGQFO-UHFFFAOYNA-N,dmso,152.149,181.337,-22908.438,-1310.5982222222265,177.16000000000005,4.4256,7.678,10.73,-1.48909,-0.0954199999999999,-0.6079,0.68095,-1.48909,0.753995538
PYHXGXCGESYPCW-YAQRNVERNA-N,toluene,212.248,242.211,-26384.370000000003,-532.0408571428561,177.16000000000005,4.4256,9.184,10.139,-1.03872,-1.07191,-0.56556,0.63307,-1.03872,-0.769551079
QUEKGYQTRJVEQC-KZFATGLANA-N,1-butanol,201.566,196.512,-24532.5,-1024.6186086956511,177.16000000000005,4.4256,8.383,13.499,-2.04815,0.25012,-0.57583,0.86738,-1.2195699999999998,-0.107905397
FJKROLUGYXJWQN-BGGKNDAXNA-N,toluene,138.123,160.929,-21919.797999999995,-1081.9047142857053,155.212,2.18319,8.524999999999999,10.263,-1.52591,0.12623,-0.57636,0.66247,-1.52591,-1.974171937
GJCOSYZMQJWQCA-UHFFFAOYNA-N,ethanol,182.221,210.426,-22710.99,-702.6095121951221,155.212,2.18319,10.266,11.762,-0.36854,-1.33998,-0.36854,0.24893,-0.36854,-1.0
WMKGGPCROCCUDY-PHEQNACWNA-N,2-propanol,234.297,291.729,-28965.176000000003,-858.9646666666704,155.212,2.18319,9.237,12.53,-0.61592,-1.72186,-0.61592,0.62304,-0.61592,-1.055517328
WURBFLDFSFBTLW-UHFFFAOYNA-N,methylcyclohexane,210.232,239.966,-25530.726,-520.0802040816343,254.751,4.46901,9.389,14.306,-0.92904,-0.68467,-0.46452,0.42069,-0.92904,-1.051073076
UMGDCJDMYOKAJW-UBUOBULFNA-N,"1,4-dioxane",76.116,105.208,-17038.183999999997,140.08640000000378,254.751,4.46901,9.604,10.869,0.0,0.48089,-0.66555,0.48089,-1.61204,-1.133009384
MFFDJRYGVWMCQY-UHFFFAOYNA-N,ethanol,224.305,278.995,-27732.712,-585.814666666658,254.751,4.46901,10.139,11.182,0.0,-1.94237,-0.41008,0.30695,-0.67929,-0.970616222
ZWLPBLYKEWSWPD-BGGKNDAXNA-N,2-methyl-1-propanol,136.15,166.143,-22064.294,-1056.2112500000003,164.561,2.79968,9.49,12.775,-1.10531,-0.48884,-0.60826,0.67811,-1.10531,0.10720997
LXCFILQKKLGQFO-UHFFFAOYNA-N,nonane,152.149,181.297,-22942.122000000003,-1344.2822222222276,177.133,3.72598,10.178,13.717,-1.42453,-0.0912599999999999,-0.56118,0.65913,-1.42453,-3.222682671
DCOPUUMXTXDBNB-GPQMBLKYNA-N,benzene,296.152,267.245,-30228.368,-1646.131400000002,324.741,1.80653,9.009,9.232,-1.05604,-0.5899000000000001,-0.5568,0.64938,-1.58791,-1.456923445
BBEAQIROQSPTKN-UHFFFAOYNA-N,2-butoxyethanol,202.255,222.477,-22114.822,-6.713014925371681,242.492,0.00155498,8.6,10.061,0.0,-1.65088,-0.17815,0.16662,0.0,-0.543644141
DFXQXFGFOLXAPO-KZFATGLANA-N,2-ethyl-1-hexanol,201.566,197.296,-24428.042,-1161.1606470588267,201.322,7.09083,8.597999999999999,13.508,-1.99221,0.20357,-0.57627,0.85924,-1.15902,-0.823908741
GPSDUZXPYCFOSQ-BGGKNDAXNA-N,thf,136.15,170.057,-22099.65,-906.0650857142828,164.911,3.40082,8.662999999999998,12.17,-1.0880999999999998,-0.48848,-0.60547,0.65708,-1.0880999999999998,0.556056287
NQTPEBUGIFUYEC-UHFFFAOYNA-N,acetonitrile,227.262,267.842,-27956.144000000004,-945.1936666666696,274.509,3.57742,11.959,10.336,-0.87171,-1.15519,-0.48924,0.35943,-1.24096,-1.142667504
QCXJEYYXVJIFCE-QIQUEDJNNA-N,benzene,179.175,206.98,-25320.272,-833.5903999999937,274.509,3.57742,8.763000000000002,9.966,-1.62218,0.12625,-0.62197,0.65749,-2.09281,-1.087309200525424
PJANXHGTPQOBST-VAWYXSNFNA-N,"2,2,4-trimethylpentane",180.249,233.278,-24116.276,-682.9097777777788,274.509,3.57742,10.197,12.944,0.0,-1.82615,-0.18394,0.15487,0.0,-1.302328704
KGCNHWXDPDPSBV-UHFFFAOYNA-N,acetonitrile,171.583,186.232,-22656.676,-2045.761846153844,274.509,3.57742,11.055,11.816,-1.04194,-0.79904,-0.52114,0.85893,-0.3409500000000001,0.452906362
ALYNCZNDIQEVRV-BGGKNDAXNA-N,1-heptanol,137.138,166.019,-21719.99,-819.0542758620686,274.509,3.57742,9.711,11.96,-1.11546,0.0241799999999999,-0.62353,0.68209,-1.61221,-0.744168136
LULAYUGMBFYYEX-BGGKNDAXNA-N,1-heptanol,156.568,170.452,-22154.096,-967.5948571428526,274.509,3.57742,9.264,12.754,-1.07376,0.0695599999999999,-0.59515,0.6606,-1.16032,-0.125438897
BSYNRYMUTXBXSQ-WXRBYKJCNA-N,"1,4-dioxane",180.16,198.81,-24996.424,-822.142150000007,206.157,3.5515600000000003,8.612,11.959,-1.98119,0.30557,-0.58438,0.68855,-1.98119,-0.061665964
YASYVMFAVPKPKE-JSWHHWTPNA-N,acetone,183.162,197.613,-25958.67,-943.1488000000028,206.157,3.5515600000000003,9.583,10.688,-2.17208,-0.53825,-0.93153,1.65175,-1.52696,-0.070581074
CKAPSXZOOQJIBF-UHFFFAOYNA-N,cyclopentanol,284.784,220.81,-23576.678,1947.3198571428584,239.642,0.00315102,8.92,12.999,0.0,0.06309,-0.01068,0.01064,-0.06308,-1.969257385
VHNQIURBCCNWDN-PPMNOVJINA-N,o-xylene,109.13,143.494,-20726.722,-339.7096666666621,133.22899999999998,3.7563,8.841000000000001,9.961,0.0,-0.05009,-0.53819,0.38526,-1.49174,-1.531780746
OTLNPYWUJOZPPA-BGGKNDAXNA-N,methanol,167.121,179.815,-23128.192,-1252.633729729725,133.22899999999998,3.7563,8.413,13.422,-2.0636,0.07477,-0.58622,0.84584,-1.21776,-0.744727495
IEDVJHCEMCRBQM-CLRGVMNRNA-N,methanol,290.321,309.996,-31875.494,-406.2257777777813,133.22899999999998,3.7563,9.784,12.15,-1.13419,-0.30156,-0.55928,0.43421,-3.1931000000000003,-1.322090747
PJANXHGTPQOBST-VAWYXSNFNA-N,acetonitrile,180.249,233.478,-24331.436,-898.069777777775,235.702,0.00531509,12.063,10.227,0.0,-1.93303,-0.19126,0.16384,0.0,-0.751080104
ZQBAKBUEJOMQEX-UHFFFAOYNA-N,2-methyl-1-propanol,214.22,238.756,-26341.028,-340.06574999999793,235.702,0.00531509,9.244,12.648,-1.47838,-0.4588199999999999,-0.59267,0.70469,-1.47838,0.042345437
UJOBWOGCFQCDNV-UHFFFAOYNA-N,cyclooctane,167.21,198.372,-21775.964,-115.21360000000276,203.276,1.49759,10.078,12.818,0.0,-1.21811,-0.2963,0.27814,-0.2963,-2.661562632
JYGXADMDTFJGBT-VWUMJDOONA-N,1-octanol,362.465,344.009,-37009.846000000005,-1105.5374000000083,203.276,1.49759,9.876,13.128,-2.8529,-2.5857,-0.63378,0.63809,-2.8529,-1.848296551
HCUARRIEZVDMPT-WXRBYKJCNA-N,ethanol,161.16,184.324,-22863.712,-623.8759999999966,203.276,1.49759,9.426,11.821,-1.08284,-0.27145,-0.59469,0.67909,-1.24224,0.099399807
LNEPOXFFQSENCJ-UHFFFAOYNA-N,acetone,375.87,390.95,-35869.848,-627.9162222222221,448.016,4.5264,9.311,9.304,-1.22642,-2.05266,-0.62647,0.60357,-1.85875,-1.331190138
GVIJJXMXTUZIOD-UHFFFAOYNA-N,3-methyl-1-butanol,216.315,223.654,-23776.564,-777.9263157894748,239.677,2.1190800000000003,9.527,11.727,0.0,-1.29315,-0.14236,0.17667,-0.09124,-1.65220237
GPSDUZXPYCFOSQ-BGGKNDAXNA-N,1-octanol,136.15,169.98,-22072.492,-878.9070857142833,239.677,2.1190800000000003,9.523,12.629,-1.08661,-0.48927,-0.60371,0.65644,-1.08661,0.087079905
CMWTZPSULFXXJA-YAQRNVERNA-N,dichloromethane,230.263,261.463,-28280.652,-651.4362499999952,278.342,1.5737200000000002,9.93,8.833,-1.47702,-1.0977400000000002,-0.59652,0.63801,-1.47702,-0.644678742
SZTDSGCADFWGKM-UHFFFAOYNA-N,ethanol,224.236,257.697,-30400.402,3258.504666666675,278.342,1.5737200000000002,13.02,13.263,-2.82322,-2.59305,-1.02661,1.49373,-1.32949,-0.29898803
RJKFOVLPORLFTN-LEKSSAKUNA-N,peg400,314.467,328.297,-33412.95,-1084.204999999998,278.342,1.5737200000000002,9.467,11.31,-1.24627,-3.54539,-0.64773,0.64193,-1.24627,-1.396999997
HVYWMOMLDIMFJA-DPAQBDIFNA-N,1-decanol,386.66,435.987,-40463.462,-1702.001272727277,545.932,2.13692,11.641,12.246,-0.61788,-6.09559,-0.61788,0.33704,-0.61788,-0.327097372
LXCFILQKKLGQFO-UHFFFAOYNA-N,heptane,152.149,181.863,-22917.692,-1319.8522222222236,545.932,2.13692,10.4,13.774,-1.42134,-0.09112,-0.55903,0.65806,-1.42134,-3.239475741
IPCSVZSSVZVIGE-HCKMINDGNA-N,dmso,256.428,353.065,-34448.634,-846.426999999996,545.932,2.13692,8.725,11.663,-1.11165,-3.55539,-0.61189,0.66635,-1.11165,0.284089937
BBEAQIROQSPTKN-UHFFFAOYNA-N,2-methyl-1-propanol,202.255,222.477,-22118.284,-10.175014925371215,545.932,2.13692,8.773,11.19,0.0,-1.66486,-0.17858,0.16803,0.0,-1.462735103
RJKGJBPXVHTNJL-UHFFFAOYNA-N,1-decanol,173.171,192.125,-22470.382,-319.86687804877874,545.932,2.13692,8.752,12.294,-1.00223,-1.06156,-0.50259,0.85288,-0.1493499999999999,-0.449290509
DCOPUUMXTXDBNB-GPQMBLKYNA-N,"1,2-propanediol",296.152,281.498,-29457.484,-875.2473999999966,545.932,2.13692,9.79,11.147,-1.11013,-0.6020599999999999,-0.6131,0.68969,-1.66469,-1.187926786
BGRJTUBHPOOWDU-QDYITYEQNA-N,water,341.424,354.213,-34418.232,-239.7694285714242,393.493,12.9655,11.002,12.907,-3.04815,-1.78928,-0.99744,2.57439,-2.19954,-2.7500001
WZWYJBNHTWCXIM-ZTGFOJEANA-N,chloroform,337.368,299.799,-31354.212,-572.5346666666665,343.187,5.73948,9.371,8.392,-2.97116,-0.7803500000000001,-0.97158,2.52517,-1.49182,-1.264302549
ILUJQPXNXACGAN-BGGKNDAXNA-N,chloroform,152.149,178.71,-24884.086,-2000.413783783788,343.187,5.73948,10.62,8.812,-1.44397,-0.0779799999999999,-0.5834,0.68905,-1.44397,0.301411243
VLYWMPOKSSWJAL-YAQRNVERNA-N,"1,2-propanediol",280.301,270.912,-29070.428,207.8565833333414,343.187,5.73948,9.078,11.451,-2.26687,-1.00323,-0.96951,2.54877,-1.4654299999999998,-1.153955371
POULHZVOKOAJMA-NDKGDYFDNA-N,ethanol,200.32,281.387,-29898.88,-917.180000000004,343.187,5.73948,10.718,13.706,-1.11256,-2.5109,-0.62501,0.66928,-1.11256,0.396721562
VFVHWCKUHAEDMY-UHFFFAOYNA-N,toluene,185.566,187.804,-22875.708,-1080.6517142857156,343.187,5.73948,7.283999999999999,11.212,-1.44715,-0.06571,-0.48857,0.84458,-0.65166,0.247273201
YLQWCDOCJODRMT-UHFFFAOYNA-N,heptane,180.206,204.757,-22232.83,-415.54627906976384,212.593,4.20017,9.643,13.426,-0.49039,-0.79785,-0.49039,0.56657,-0.49039,-0.958607315
HYYBABOKPJLUIN-HCKMINDGNA-N,ethanol,241.289,270.379,-29072.804,-574.674799999997,212.593,4.20017,9.717,11.89,-1.1185,-1.33109,-0.6176,0.69081,-1.53188,-1.465662161
JDCMOHAFGDQQJX-UHFFFAOYNA-N,"cis-1,2-dimethylcyclohexane",272.097,214.933,-25504.27,134.45219999999972,228.343,0.00112027,8.353,13.881,0.0,0.6139,-0.08279,0.11865,-0.6139,-0.32198645