InChIkey,Solvent,MW,SASA,G_sol,DeltaG_sol,Volume,sol_dip,LsoluHsolv,LsolvHsolu,O_charges,C_charges,Most_neg,Most_pos,Het_charges,LogS
FPWNLURCHDRMHC-UHFFFAOYNA-N,water,188.656,217.6,-23212.31,-1247.5731999999916,239.587,1.6792699999999998,11.257,13.297999999999998,0.0,-1.40491,-0.17902,0.18063,-0.11214,-5.177451099
BXAOUWIVXLQYOZ-SPEPDGBUNA-N,cyclohexane,443.542,446.815,-44890.28,-304.9138666666695,239.587,1.6792699999999998,10.171,13.314,-2.45614,-2.19151,-0.61682,0.72406,-3.77938,-2.1124032833770494
NQTPEBUGIFUYEC-UHFFFAOYNA-N,methanol,227.262,268.019,-27720.139999999992,-709.189666666658,239.587,1.6792699999999998,9.673,11.777,-0.8713299999999999,-1.15364,-0.48821,0.35919,-1.241,-0.886056648
XRHGYUZYPHTUJZ-BGGKNDAXNA-N,2-isopropoxyethanol,156.568,170.601,-22601.734000000004,-1200.8733333333366,239.587,1.6792699999999998,8.786,11.942,-1.07927,0.07061,-0.59839,0.66593,-1.16694,-0.512461185
XMTQQYYKAHVGBJ-XWKXFZRBNA-N,tert-butylcyclohexane,233.097,243.451,-27077.222,-2092.5304800000013,251.514,6.21239,9.897,13.059,-0.59875,-0.23915,-0.59875,0.67437,-1.57553,-3.358707379
YNPNZTXNASCQKK-UHFFFAOYNA-N,1-butanol,178.233,209.472,-22814.922,-433.34216666666543,251.514,6.21239,9.388,11.62,0.0,-1.6329,-0.17508,0.16754,0.0,-0.716722335
PJANXHGTPQOBST-VAWYXSNFNA-N,nonane,180.249,233.263,-24119.934,-686.5677777777782,251.514,6.21239,10.2,12.796,0.0,-1.83045,-0.18426,0.15522,0.0,-1.107026907
PYZRQGJRPPTADH-KGJHZMDYNA-N,n-methyl-2-pyrrolidone,256.094,243.409,-27112.098,-1525.0679999999993,251.514,6.21239,7.981999999999999,11.048,0.0,0.26567,-0.52945,0.39865,-1.95298,-1.232844134
GVIJJXMXTUZIOD-UHFFFAOYNA-N,octane,216.315,223.654,-23475.512,-476.8743157894714,251.514,6.21239,10.411,12.582999999999998,0.0,-1.27736,-0.1394,0.16845,-0.034,-1.612330838
HCUARRIEZVDMPT-WXRBYKJCNA-N,1-propanol,161.16,184.324,-22880.49,-640.653999999995,182.922,4.16798,9.256,11.736,-1.0817,-0.27051,-0.59316,0.67847,-1.24156,-0.058287809
GSBSDUZVSCTUKA-PKSOQXRJNA-N,hexane,288.345,298.929,-28673.942000000003,2.3889333333281684,182.922,4.16798,9.706,12.45,-1.0547,-1.69774,-0.56459,0.64364,-1.0547,-1.4488776021929823
AQIXAKUUQRKLND-UHFFFAOYSA-N,butanone,252.337,290.304,-29479.806,-1075.270999999997,182.922,4.16798,10.148,9.723,0.0,-0.7915099999999999,-0.49601,0.42606,-2.41704,-1.920818754
IKGXIBQEEMLURG-NVPNHPEKNA-N,ethanol,610.524,495.121,-49552.98399999999,59.9737142857266,182.922,4.16798,9.08,12.153,-7.98883,0.99767,-0.62921,0.60745,-7.98883,-1.080669302
PCZOHLXUXFIOCF-BXMDZJJMNA-N,butanone,404.545,404.664,-42469.754,-2138.437333333335,182.922,4.16798,10.322,9.594,-2.70349,-3.1834800000000003,-0.62287,0.72403,-2.70349,-0.894422394
JTEGQNOMFQHVDC-IRNSGEEPNA-N,1-butanol,229.253,218.488,-27483.964000000004,-1723.3583999999937,182.922,4.16798,9.704,12.345,-1.66071,0.88948,-0.66183,0.72484,-3.31495,-1.536399721
WURBFLDFSFBTLW-UHFFFAOYNA-N,methanol,210.232,239.777,-26062.754,-1052.1082040816327,182.922,4.16798,9.019,12.964,-1.02081,-0.66717,-0.5105,0.4434,-1.02081,-0.729999999
BBEAQIROQSPTKN-UHFFFAOYNA-N,2-propanol,202.255,222.477,-22120.172,-12.063014925370226,182.922,4.16798,9.062,11.260000000000002,0.0,-1.6665,-0.17863,0.16819,0.0,-1.424812155
WXTMDXOMEHJXQO-KZFATGLANA-N,acetone,154.122,166.679,-22270.24,15.141142857144589,162.271,0.46308,8.987,9.87,-2.06031,0.38648,-0.58385,0.67974,-2.06031,0.335457901
IKGXIBQEEMLURG-NVPNHPEKNA-N,1-propanol,610.524,525.193,-49559.19000000001,53.76771428570646,653.0709999999999,3.91418,8.956000000000001,12.236,-8.04218,1.01849,-0.63032,0.62761,-8.04218,-1.576360876
SKZKKFZAGNVIMN-FSHFIPFONA-N,1-heptanol,137.138,161.154,-21235.270000000004,-736.0581176470587,156.615,6.42511,9.603,12.371,-1.1843,0.0587499999999999,-0.67908,0.64151,-1.70596,-0.66756154
NIHNNTQXNPWCJQ-UHFFFAOYNA-N,hexadecane,166.222,200.685,-21504.848,-102.71699999999691,207.067,0.566325,10.31,12.783,0.0,-1.58558,-0.32139,0.17629,0.0,-0.619811483
RZVAJINKPMORJF-BGGKNDAXNA-N,1-tert-butoxy-2-propanol,151.165,185.345,-23415.712,-496.52268421052577,181.626,6.968680000000001,9.597,10.689,-1.13139,-0.42729,-0.63537,0.65992,-1.57328,-0.549915377
AAOVKJBEBIDNHE-UHFFFAOYNA-N,n-methyl-2-pyrrolidone,284.745,289.263,-29429.188,-877.9703999999983,324.523,5.799919999999999,8.36,10.526,-0.61255,-0.92733,-0.61255,0.59939,-1.3909200000000002,0.119585775
NIHNNTQXNPWCJQ-UHFFFAOYNA-N,2-methyl-1-propanol,166.222,200.685,-21520.23,-118.09899999999834,324.523,5.799919999999999,9.729,11.895,0.0,-1.66565,-0.32627,0.18458,0.0,-0.965518743
WJFKNYWRSNBZNX-UHFFFAOYNA-N,1-octanol,199.27,217.299,-25675.966,-2429.3460000000014,324.523,5.799919999999999,9.929,10.883,0.0,-1.2181,-0.39828,0.29648,-0.42874,-0.930652419
GPSDUZXPYCFOSQ-BGGKNDAXNA-N,2-propoxyethanol,136.15,170.073,-21999.206,-805.6210857142833,324.523,5.799919999999999,9.023,11.616,-1.08498,-0.48849,-0.60222,0.65559,-1.08498,0.260567779
LETVJWLLIMJADE-GLFQYTTQNA-N,methanol,95.1036,126.411,-19347.34,-972.4152500000018,114.63,8.230730000000001,9.443,13.076,0.0,-0.16204,-0.54347,0.26909,-0.97445,-0.089525512
VYWYYJYRVSBHJQ-KZFATGLANA-N,1-pentanol,212.118,207.639,-25285.824,-1380.0632592592592,208.185,4.39323,8.153,14.332,-3.01122,0.2809,-0.57536,0.87371,-1.26434,-0.539311211
BBEAQIROQSPTKN-UHFFFAOYNA-N,"3,7-dimethyl-1-octanol",202.255,222.477,-22111.156,-3.047014925370604,208.185,4.39323,8.801,11.104,0.0,-1.64427,-0.17794,0.16595,0.0,-1.053118001
UVEWQKMPXAHFST-UHFFFAOYNA-N,hexane,181.237,229.978,-24817.982,-1455.0512500000004,208.185,4.39323,10.484,13.608999999999998,0.0,-1.40072,-0.31742,0.17207,-0.31742,0.167021796
MJIHNNLFOKEZEW-PKSOQXRJNA-N,acetone,369.361,353.674,-33364.348,-721.0639999999912,208.185,4.39323,9.393,9.658,-1.17319,-1.25313,-0.81963,1.18749,-1.50337,-1.283108423
PJANXHGTPQOBST-VAWYXSNFNA-N,2-propanol,180.249,233.478,-24296.115999999995,-862.7497777777717,235.702,0.00502764,9.833,11.896999999999998,0.0,-1.92646,-0.19081,0.16326,0.0,-1.436328685
WXTMDXOMEHJXQO-KZFATGLANA-N,acetonitrile,154.122,166.938,-22850.098,-564.7168571428556,235.702,0.00502764,11.509,10.565,-2.0662000000000003,0.39496,-0.61948,0.68498,-2.0662000000000003,-0.223298816
XZAXQWXHBDKYJI-CMLSCEPHNA-N,methanol,346.276,317.499,-33440.842000000004,-904.0837500000016,235.702,0.00502764,9.526,12.182,-3.66852,-1.13904,-0.92945,1.61725,-2.05127,-0.742792702
KZTYYGOKRVBIMI-UHFFFAOYNA-N,1-chlorobutane,218.27,232.227,-25828.348,379.43591666666543,249.678,7.37451,10.063,11.06,-1.97827,-2.09775,-0.98926,2.45078,0.47251,-0.676854037
BONIIQYTWOPUQI-BGGKNDAXNA-N,methanol,192.131,189.978,-23285.83,-521.8199999999924,249.678,7.37451,8.348,13.847,-1.99555,0.69687,-0.52228,0.84903,-1.6221200000000002,-1.288007101
WNLRTRBMVRJNCN-AUDIXQRPNA-N,dmso,146.143,177.842,-23840.292,-833.8145263157894,176.469,2.62732,8.679,12.491,-2.21492,0.08597,-0.61103,0.66281,-2.21492,0.573748625
ISAOCJYIOMOJEB-UHFFFAOYNA-N,"1,4-dioxane",212.248,239.927,-26718.712,-1046.9393157894738,263.946,2.40973,8.8,11.41,-1.03592,-1.0438,-0.52523,0.48947,-1.03592,-0.3326756
FZERHIULMFGESH-BGGKNDAXNA-N,chloroform,135.165,175.218,-22832.102,-725.4058333333342,169.878,4.91857,11.193,8.442,-0.61287,-0.6712499999999999,-0.62578,0.66095,-1.07385,0.269512944
HEFNNWSXXWATRW-YHMJCDSINA-N,"1,4-dioxane",206.284,257.614,-28209.800000000003,-214.1480645161355,169.878,4.91857,9.775,11.114,-1.05138,-1.95056,-0.56151,0.61992,-1.05138,-0.377508802
DWMREKMVXIFPFM-RWWBHRBBNA-N,acetone,351.394,321.629,-33254.872,-1221.8340833333275,169.878,4.91857,8.656,9.39,-2.92804,-0.88359,-0.98071,2.49594,-1.7578699999999998,-2.093953812
VFVHWCKUHAEDMY-UHFFFAOYNA-N,chloroform,185.566,187.804,-22957.816,-1162.759714285712,169.878,4.91857,9.396,9.977,-1.50407,-0.03416,-0.5168,0.85732,-0.69537,0.462397998
YFLCNWFWKPUGTP-UHFFFAOYNA-N,chloroform,493.386,479.192,-43676.350000000006,-1420.122500000005,169.878,4.91857,10.685,8.046000000000001,-2.51444,-0.91438,-0.60095,0.66596,-3.5905,-1.004364805
WMKGGPCROCCUDY-PHEQNACWNA-N,acetonitrile,234.297,292.229,-29585.646,-1479.434666666668,169.878,4.91857,11.602,10.914,-0.60877,-1.75185,-0.60877,0.61684,-0.60877,-0.188424994
WURBFLDFSFBTLW-UHFFFAOYNA-N,acetone,210.232,240.004,-25709.224,-698.5782040816339,247.977,0.0050845099999999,8.518,10.706,-1.0139399999999998,-0.67293,-0.50701,0.45008,-1.0139399999999998,0.240694149
HEFNNWSXXWATRW-YHMJCDSINA-N,peg400,206.284,257.008,-28299.450000000004,-303.79806451613695,279.379,3.26975,9.746,10.575,-1.09326,-1.97229,-0.6173,0.64051,-1.09326,0.079
XMTQQYYKAHVGBJ-XWKXFZRBNA-N,2-butanol,233.097,243.503,-26725.834,-1741.1424799999986,251.714,7.244969999999999,9.735,12.127,-0.66499,-0.2646799999999999,-0.66499,0.6823,-1.6346699999999998,-1.038608396
RXKNNAKAVAHBNK-UHFFFAOYNA-N,1-propanol,140.098,154.652,-20193.812,1334.3916842105318,251.714,7.244969999999999,8.366000000000001,13.012,-1.62227,-0.7319,-0.6119,0.87385,-0.1376,-1.41453927
VFVHWCKUHAEDMY-UHFFFAOYNA-N,dmso,185.566,187.804,-23040.046,-1244.9897142857153,187.54,7.27638,6.505,11.544,-1.5499,-0.0083099999999999,-0.53985,0.86698,-0.73067,0.466763684
YRHRIQCWCFGUEQ-UHFFFAOYNA-N,ethanol,212.266,221.762,-24852.948,-1659.857178571423,187.54,7.27638,9.217,11.941,-0.59476,-0.7950600000000001,-0.59476,0.59293,-0.60768,-1.903811271
AFPHTEQTJZKQAQ-BGGKNDAXNA-N,1-pentanol,167.121,179.6,-23022.36,-1205.492222222223,176.298,3.94434,8.557,13.628,-2.0877600000000003,0.10361,-0.59129,0.86314,-1.22462,0.116497148
RYYVLZVUVIJVGH-UHFFFAOYNA-N,methanol,194.193,206.828,-25387.164000000004,-1445.0016666666706,176.298,3.94434,9.789,12.205,-1.21574,0.3284899999999999,-0.61146,0.69095,-2.2278,-1.314846706
ZWLPBLYKEWSWPD-BGGKNDAXNA-N,water,136.15,166.569,-22087.006,-1078.9232499999998,164.799,3.7238,11.044,13.815,-1.10612,-0.49332,-0.63183,0.68601,-1.10612,-2.052878743
UMGDCJDMYOKAJW-UBUOBULFNA-N,1-pentanol,76.116,104.667,-17093.6,84.6704000000027,164.799,3.7238,10.273,12.464,0.0,0.50779,-0.80089,0.50779,-1.70199,-1.020412777
AFPHTEQTJZKQAQ-BGGKNDAXNA-N,methanol,167.121,179.627,-23441.422,-1624.5542222222211,164.799,3.7238,8.721,13.581,-2.10009,0.10879,-0.59951,0.86622,-1.23387,0.564133971
WBYWAXJHAXSJNI-KZFATGLANA-N,water,148.161,186.875,-22847.954,-588.4183750000011,164.799,3.7238,10.765,13.719,-1.11103,-0.45131,-0.62437,0.68439,-1.11103,-2.52578483
BOCJQSFSGAZAPQ-UHFFFAOYNA-N,2-methyl-1-pentanol,242.661,236.9,-25941.705999999995,-770.2366530612198,164.799,3.7238,8.133,12.931,-1.07098,-0.12831,-0.53949,0.56768,-1.13666,-2.20533604
WJFKNYWRSNBZNX-UHFFFAOYNA-N,2-propanol,199.27,217.26,-25027.548,-1780.928,164.799,3.7238,10.065,11.094,0.0,-1.22431,-0.39879,0.30033,-0.43623,-1.105167772
VHNQIURBCCNWDN-PPMNOVJINA-N,2-propanol,109.13,143.248,-20573.402,-186.3896666666624,164.799,3.7238,10.25,12.510000000000002,0.0,-0.03046,-0.56902,0.38943,-1.58994,0.00172793
GPSDUZXPYCFOSQ-BGGKNDAXNA-N,2-isopropoxyethanol,136.15,169.911,-21848.498,-654.9130857142845,164.96,3.36314,9.025,11.627,-1.08609,-0.48908,-0.60322,0.65609,-1.08609,0.292584239
RXKNNAKAVAHBNK-UHFFFAOYNA-N,octane,140.098,154.652,-20083.878,1444.325684210533,147.277,1.33156,8.924,14.326,-1.48607,-0.81206,-0.53239,0.84902,-0.0247000000000001,-3.581698709
CKAPSXZOOQJIBF-UHFFFAOYNA-N,2-butanol,284.784,220.81,-23579.85,1944.14785714286,147.277,1.33156,8.933,12.959,0.0,0.06376,-0.01078,0.01094,-0.06377,-2.249354627
JJVNINGBHGBWJH-UHFFFAOYNA-N,toluene,152.149,178.271,-23416.594,-1510.975599999998,147.277,1.33156,8.311,9.582999999999998,-1.36386,-0.0890799999999999,-0.52027,0.44356,-1.36386,0.582063363
DKYWVDODHFEZIM-GPQMBLKYNA-N,1-butanol,254.285,284.104,-29530.078000000005,-700.1662222222185,147.277,1.33156,9.271999999999998,12.916999999999998,-1.67614,-0.90127,-0.60241,0.64262,-1.67614,0.018027258
GSBSDUZVSCTUKA-PKSOQXRJNA-N,acetonitrile,288.345,305.724,-29034.254,-357.9230666666699,346.342,3.45279,11.302,9.546,-1.11621,-1.78915,-0.61393,0.67192,-1.11621,-0.6885940485526315
MWPLVEDNUUSJAV-UHFFFAOYNA-N,2-methyl-1-propanol,178.233,211.323,-21533.336,706.1824571428624,346.342,3.45279,8.798,11.18,0.0,-1.64346,-0.19823,0.17101,0.0,-2.293532799
QRXWMOHMRWLFEY-BGGKNDAXNA-N,methanol,137.141,165.6,-22724.184,-1631.2972000000009,160.3,2.83469,9.411,13.213,-0.63496,0.13667,-0.63496,0.5514,-1.70201,-0.581152827
SATCULPHIDQDRE-UHFFFAOYNA-N,hexane,150.134,168.377,-21847.242,-1354.3585454545428,160.3,2.83469,9.972,13.599,-1.18809,0.2334299999999999,-0.49567,0.41433,-1.18809,-0.823908741
ZWLPBLYKEWSWPD-BGGKNDAXNA-N,thf,136.15,166.811,-22413.198,-1405.115249999999,160.3,2.83469,8.841999999999999,12.195,-1.09504,-0.4914700000000001,-0.61974,0.68097,-1.09504,0.465382851
NUVBSKCKDOMJSU-UHFFFAOYNA-N,peg400,166.176,201.865,-25390.142,-1014.8109090909091,160.3,2.83469,9.04,10.892,-1.51568,-0.3750699999999999,-0.61423,0.68108,-1.51568,0.242
CWRYPZZKDGJXCA-UHFFFAOYNA-N,butyronitrile,154.211,186.967,-20965.932,395.9968000000008,160.3,2.83469,11.444,9.932,0.0,-1.65123,-0.29965,0.17102,0.0,0.022608787
HEFNNWSXXWATRW-YHMJCDSINA-N,1-octanol,206.284,254.578,-29488.40400000001,-1492.7520645161385,160.3,2.83469,10.419,12.235,-1.09381,-1.96128,-0.60078,0.64016,-1.09381,0.151565062
PBZQTKRWYXTXIS-YQFGMCEENA-N,toluene,464.606,446.469,-43897.182,-1532.7486666666591,597.19,8.343399999999999,8.145999999999999,9.252999999999998,-1.20296,-3.26403,-0.62745,0.64717,-2.11542,-1.397940009
SKCNYHLTRZIINA-UHFFFAOYNA-N,water,162.018,173.307,-22083.654,-595.4054285714265,597.19,8.343399999999999,10.906,14.092,0.0,-0.33675,-0.37862,0.20578,-0.62096,-1.834150518
UMGDCJDMYOKAJW-UBUOBULFNA-N,peg400,76.116,104.406,-16929.066,249.20440000000235,597.19,8.343399999999999,9.707,10.753,0.0,0.50659,-0.79396,0.50659,-1.6973,0.755601841
UFWIBTONFRDIAS-UHFFFAOYNA-N,"cis-1,4-dimethylcyclohexane",128.173,165.632,-19420.358,176.42503030303124,597.19,8.343399999999999,9.874,12.759999999999998,0.0,-1.22597,-0.16911,0.15523,0.0,0.029731174
DAUAQNGYDSHRET-KZFATGLANA-N,1-decanol,182.176,208.269,-26614.608,-2265.1918461538444,210.156,2.28686,9.444,11.981,-1.8213,-0.0627,-0.60246,0.6646,-1.8213,-1.501000003
MNIPYSSQXLZQLJ-UYBDAZJANA-N,methanol,354.189,311.621,-34094.56800000001,-998.9990000000034,210.156,2.28686,9.976,11.763,-2.00145,-0.14802,-0.57703,0.66897,-2.58384,-1.522878745
BGNGWHSBYQYVRX-UHFFFAOYNA-N,methanol,149.192,191.568,-22901.392,-1235.284285714286,191.206,8.25409,9.909,11.266,-0.614,-0.91877,-0.614,0.47014,-0.8720600000000001,0.133538908
WXTMDXOMEHJXQO-KZFATGLANA-N,chloroform,154.122,166.543,-22638.942000000003,-353.5608571428602,162.582,3.33287,10.089,8.532,-2.02448,0.38741,-0.6013,0.67293,-2.02448,-2.096910013
QFOHBWFCKVYLES-UHFFFAOYNA-N,1-pentanol,194.23,239.266,-26935.092,-865.5970769230807,162.582,3.33287,9.608,12.57,-1.51286,-0.90626,-0.61947,0.68125,-1.51286,0.437059229
XVULBTBTFGYVRC-HHUCQEJWNA-N,methanol,308.503,340.455,-35756.44,-2032.1660000000047,162.582,3.33287,11.336,12.796,-1.26729,-4.51774,-0.65359,0.42666,-1.26729,-0.606020774
RJKGJBPXVHTNJL-UHFFFAOYNA-N,2-methyl-2-propanol,173.171,192.048,-22434.092,-283.5768780487815,162.582,3.33287,8.801,12.462,-1.01014,-1.06464,-0.50687,0.8566,-0.15354,-0.610186314
DFXQXFGFOLXAPO-KZFATGLANA-N,2-butanol,201.566,197.206,-24663.836,-1396.9546470588211,201.351,7.31955,8.704,13.628,-2.01182,0.21291,-0.58704,0.86347,-1.17614,-0.494850022
SQNZJJAZBFDUTD-UHFFFAOYNA-N,3-methyl-1-butanol,134.221,191.197,-23182.988,-714.3374193548334,195.278,0.0031577,10.501,11.863,0.0,-2.34739,-0.4905,0.17092,0.0,-0.255674486
SKZKKFZAGNVIMN-FSHFIPFONA-N,2-propoxyethanol,137.138,161.144,-21224.25,-725.0381176470546,195.278,0.0031577,9.135,11.391,-1.17965,0.05921,-0.67591,0.64158,-1.70301,-0.018586364
CWRYPZZKDGJXCA-UHFFFAOYNA-N,4-methyl-2-pentanol,154.211,187.008,-20860.29,501.63880000000063,195.278,0.0031577,9.77,11.501,0.0,-1.64335,-0.29894,0.17014,0.0,-0.693405596
SJEBAWHUJDUKQK-UHFFFAOYNA-N,decane,236.27,258.807,-27150.156,-658.4477599999991,195.278,0.0031577,9.008,14.199,-1.00923,-0.9624,-0.50837,0.53974,-1.00923,-1.521000003
KZTYYGOKRVBIMI-UHFFFAOYNA-N,water,218.27,232.188,-26218.966,-11.18208333333314,249.885,7.68277,11.296,13.979,-2.00563,-2.10275,-1.00291,2.46093,0.4552999999999998,-3.643782866
ZPSPULCZMWMHCY-GHUVFRGKNA-N,water,276.656,254.084,-28956.714,-962.8016666666664,295.67,6.79938,11.4,13.659,-2.89781,-1.4420000000000002,-0.93403,1.8536,-1.14421,-2.047170907
WJUFSDZVCOTFON-UHFFFAOYNA-N,water,166.176,200.06,-25043.272,-2044.7238333333328,295.67,6.79938,10.754,12.998,-1.34866,-0.3219399999999999,-0.58473,0.45409,-1.34866,-1.15490196
YGSDEFSMJLZEOE-BGGKNDAXNA-N,peg400,138.123,157.412,-21602.85,-456.037400000001,295.67,6.79938,8.791,10.845,-1.58224,0.15068,-0.62495,0.69325,-1.58224,0.362
YLQWCDOCJODRMT-UHFFFAOYNA-N,2-methyl-1-pentanol,180.206,204.757,-22306.212,-488.92827906976527,295.67,6.79938,8.693,12.272,-0.54966,-0.80414,-0.54966,0.59508,-0.54966,-0.443697499
ONUFSRWQCKNVSL-UHFFFAOYNA-N,dichloroethane,334.116,260.826,-29241.228,178.1057999999939,287.921,0.00104724,9.486,10.966,0.0,0.8063600000000001,-0.09572,0.16875,-0.80638,0.41930933
UJOBWOGCFQCDNV-UHFFFAOYNA-N,"2,2,4-trimethylpentane",167.21,198.372,-21772.698,-111.94759999999953,203.28,1.48263,10.438,12.573999999999998,0.0,-1.21388,-0.29659,0.27729,-0.29659,-3.106415764
UJOBWOGCFQCDNV-UHFFFAOYNA-N,octane,167.21,198.372,-21775.666,-114.9156000000039,203.28,1.48263,10.603,12.491,0.0,-1.21811,-0.2963,0.27814,-0.2963,-2.908893591
AYIRNRDRBQJXIF-SVGYMEAUNA-N,methanol,358.211,325.604,-35004.888,-810.4739999999947,203.28,1.48263,9.653,12.919,-3.20845,-1.46692,-1.0092,2.50476,-1.4893999999999998,-0.44191654
NVKJOXRVEKMMHS-UHFFFAOYNA-N,1-propanol,128.047,130.739,-20927.216,-1572.7014285714286,203.28,1.48263,5.997000000000001,14.883,-1.03786,0.5539,-0.41593,0.85455,-0.55389,-1.05124613
ISAOCJYIOMOJEB-UHFFFAOYNA-N,3-methyl-1-butanol,212.248,245.338,-26499.72600000001,-827.9533157894803,259.088,2.23095,9.222,12.949,-1.08722,-1.08014,-0.54409,0.52028,-1.08722,-1.714726808
ILUJQPXNXACGAN-BGGKNDAXNA-N,2-methyl-1-pentanol,152.149,179.179,-23372.772,-489.0997837837895,259.088,2.23095,9.5,12.402,-1.47061,-0.07626,-0.61624,0.70282,-1.47061,-0.455931956
IPCSVZSSVZVIGE-HCKMINDGNA-N,1-propanol,256.428,359.6,-35345.902,-1743.6949999999997,259.088,2.23095,10.683000000000002,13.621,-1.11841,-3.58588,-0.6155,0.67108,-1.11841,-0.050609993
LVHBHZANLOWSRM-HJYFZBQUNA-N,acetonitrile,130.1,153.962,-22156.892,-905.864499999996,147.97299999999998,4.05634,12.021,12.479,-2.18526,0.65727,-0.6113,0.67474,-2.18526,-1.001134128
YSSSPARMOAYJTE-UHFFFAOYNA-N,aniline,360.406,368.103,-35113.346000000005,-98.94505882353404,147.97299999999998,4.05634,8.392999999999999,9.35,-2.51388,-1.13471,-0.46799,0.24297,-2.51388,-0.653647026
NSPMIYGKQJPBQR-UHFFFAOYSA-N,formamide,69.0658,95.528,-16066.11,28.10719999999856,147.97299999999998,4.05634,11.028,12.044,0.0,-0.03512,-0.29408,0.32442,-0.75373,0.698883137
HYZJCKYKOHLVJF-FZOZFQFYNA-N,dmf,118.138,147.573,-19891.436,-417.9048888888865,141.02700000000002,5.11765,8.972000000000001,10.389,0.0,-0.5346,-0.4258,0.30709,-0.64654,0.346515344
SKZKKFZAGNVIMN-FSHFIPFONA-N,peg400,137.138,161.123,-21121.19,-621.9781176470569,141.02700000000002,5.11765,9.106,10.8,-1.18593,0.0638,-0.6893,0.64798,-1.72988,0.331
MWPLVEDNUUSJAV-UHFFFAOYNA-N,1-decanol,178.233,211.323,-21530.594,708.9244571428608,141.02700000000002,5.11765,8.961,11.15,0.0,-1.62693,-0.19715,0.16926,0.0,-1.744727495
CPJSUEIXXCENMM-WXRBYKJCNA-N,benzene,179.218,222.648,-27002.636,-948.5415714285735,223.813,2.6537300000000004,9.552,8.959,-0.99339,-0.92361,-0.6224,0.64694,-1.44397,-1.629696315
BBEAQIROQSPTKN-UHFFFAOYNA-N,ethylbenzene,202.255,222.477,-22098.61,9.498985074627852,223.813,2.6537300000000004,7.93,8.623000000000001,0.0,-1.58448,-0.1758,0.15988,0.0,-0.2882435
YNPNZTXNASCQKK-UHFFFAOYNA-N,cyclooctane,178.233,209.472,-23061.898,-680.3181666666642,223.813,2.6537300000000004,9.622,13.021,0.0,-1.54421,-0.16869,0.158,0.0,-0.376133086
VHHHONWQHHHLTI-UHFFFAOYNA-N,"cis-1,3-dimethylcyclohexane",236.74,176.295,-21899.832,-39.58930434782815,193.353,0.000408167,8.769,15.573999999999998,0.0,0.2954,-0.04925,0.1477,-0.2954,0.079364171
XMTQQYYKAHVGBJ-XWKXFZRBNA-N,benzene,233.097,243.298,-27050.238,-2065.546479999997,193.353,0.000408167,9.096,9.467,-0.60308,-0.2452100000000001,-0.60308,0.6737,-1.57428,-2.03