InChIkey,Solvent,MW,SASA,G_sol,DeltaG_sol,Volume,sol_dip,LsoluHsolv,LsolvHsolu,O_charges,C_charges,Most_neg,Most_pos,Het_charges,LogS
QQVIHTHCMHWDBS-FLKJISBTNA-N,1-octanol,166.133,182.649,-24554.304,-1874.5358461538417,256.833,1.4332600000000002,9.157,13.413,-2.15329,0.71171,-0.59674,0.67089,-2.15329,-1.667736432
UDUNORRTIFRHKX-LBOYIXSDNA-N,water,495.402,485.426,-45945.20999999999,-1321.5449999999985,585.461,6.02599,11.124,12.46,-2.55799,-1.34228,-0.62389,0.67291,-3.7953,-1.602059991
VHHHONWQHHHLTI-UHFFFAOYNA-N,"cis-1,2-dimethylcyclohexane",236.74,176.295,-21899.832,-39.58930434782815,193.353,0.000325,8.742,15.605,0.0,0.29541,-0.04926,0.14771,-0.29541,0.106889078
YXVFYQXJAXKLAK-UHFFFAOYNA-N,water,170.21,208.14,-23423.358,-1081.4869999999974,193.353,0.000325,11.488,13.036,-0.50474,-1.35884,-0.50474,0.35866,-0.50474,-3.480000159
ZUOUZKKEUPVFJK-UHFFFAOYNA-N,"2,2,4-trimethylpentane",154.211,198.05,-21530.098,-711.4688148148161,193.353,0.000325,10.638,13.367,0.0,-1.52536,-0.17155,0.15621,0.0,-0.165870813
MFFDJRYGVWMCQY-UHFFFAOYNA-N,thf,224.305,267.377,-27160.848000000005,-13.950666666663892,193.353,0.000325,9.213,10.635,0.0,-1.92278,-0.41227,0.30194,-0.6851,0.179551791
FAOHQGXEASKQDL-AHPDCHJINA-N,dmso,215.685,245.778,-29240.85,-3211.828545454548,193.353,0.000325,7.512,10.749,0.0,-0.1438500000000001,-0.57906,0.51896,-2.41131,-0.071604148
HXEWMTXDBOQQKO-UHFFFAOYNA-N,water,198.051,198.276,-23161.612,-1478.2439999999951,204.489,3.08745,10.231000000000002,13.52,0.0,-0.3938899999999999,-0.41917,0.23452,-0.58162,-2.802737366
QQVIHTHCMHWDBS-FLKJISBTNA-N,1-heptanol,166.133,182.641,-23809.372000000003,-1129.6038461538485,180.173,5.8675500000000005,9.119,13.37,-2.15428,0.71144,-0.59721,0.67082,-2.15428,-1.596325952
MWPLVEDNUUSJAV-UHFFFAOYNA-N,thf,178.233,211.323,-21531.566,707.9524571428592,180.173,5.8675500000000005,8.094,10.589,0.0,-1.63656,-0.19777,0.17028,0.0,-0.981340998
CDPKJZJVTHSESZ-KZFATGLANA-N,ethanol,170.595,190.851,-23159.692,-1300.3803333333344,180.173,5.8675500000000005,10.16,12.571,-1.10106,-0.3027,-0.6048,0.68204,-1.20899,0.326292373
REYJJPSVUYRZGE-UHFFFAOYNA-N,acetonitrile,269.513,389.302,-36062.81199999999,164.45700000000943,420.86,2.41287,16.311999999999998,11.095,0.0,-4.87704,-0.56883,0.22733,-0.56883,-1.096910013
FFGPTBGBLSHEPO-ZHLVXTBQNA-N,methanol,236.273,250.419,-26789.078,-933.9229999999988,277.811,5.49842,9.799,11.703,-0.67738,-0.67452,-0.67738,0.6948,-1.61462,-0.471747324
YNPNZTXNASCQKK-UHFFFAOYNA-N,"1,4-dioxane",178.233,209.472,-22945.986,-564.4061666666676,277.811,5.49842,8.856,10.356,0.0,-1.55131,-0.16921,0.15877,0.0,0.320709602
SQNZJJAZBFDUTD-UHFFFAOYNA-N,2-butanol,134.221,191.231,-22481.996,-13.34541935483503,195.363,0.00677246,10.663,11.886,0.0,-2.35031,-0.49119,0.17111,0.0,-0.26036108
GJCOSYZMQJWQCA-UHFFFAOYNA-N,2-butoxyethanol,182.221,210.478,-22869.294,-860.9135121951222,195.363,0.00677246,9.834,10.669,-0.36439,-1.32734,-0.36439,0.2516,-0.36439,-0.399647574
BMLIZLVNXIYGCK-WXRBYKJCNA-N,trifluoroethanol,198.652,226.128,-25533.874,-1638.1165517241352,195.363,0.00677246,10.982,10.014,-0.67522,-0.43424,-0.67522,0.68333,-1.60519,-0.4677789
ZUOUZKKEUPVFJK-UHFFFAOYNA-N,2-butoxyethanol,154.211,198.095,-21925.52,-1106.8908148148112,201.28,0.00347402,9.808,11.126,0.0,-1.59079,-0.17869,0.16242,0.0,0.06040086
UFWIBTONFRDIAS-UHFFFAOYNA-N,chlorobenzene,128.173,165.632,-19401.556,195.2270303030309,201.28,0.00347402,8.805,8.706,0.0,-1.26952,-0.17433,0.16082,0.0,0.459609256
ZFXYFBGIUFBOJW-FZOZFQFYNA-N,2-propanol,180.166,189.67,-23563.318,-795.8818461538467,201.28,0.00347402,9.793,12.552,-1.20914,0.7144600000000001,-0.60571,0.68648,-2.35073,-1.663609588
YRHRIQCWCFGUEQ-UHFFFAOYNA-N,methylcyclohexane,212.266,221.762,-24062.476,-869.3851785714287,201.28,0.00347402,9.507,13.154,-0.53866,-0.80249,-0.53866,0.56473,-0.5336000000000001,-2.391574743
WZWYJBNHTWCXIM-ZTGFOJEANA-N,dmf,337.368,299.852,-32728.886,-1947.2086666666653,343.285,6.099480000000001,7.475,10.248,-3.01183,-0.7702100000000001,-0.98489,2.53613,-1.52896,-1.299048866
CWRYPZZKDGJXCA-UHFFFAOYNA-N,2-propanol,154.211,186.967,-20988.864,373.0648000000001,343.285,6.099480000000001,9.885,11.579,0.0,-1.65095,-0.29961,0.17099,0.0,-0.764724123
YNPNZTXNASCQKK-UHFFFAOYNA-N,trifluoroethanol,178.233,209.472,-22815.656,-434.0761666666658,343.285,6.099480000000001,10.439,9.764,0.0,-1.63803,-0.1754,0.16809,0.0,-2.698970004
XMTQQYYKAHVGBJ-XWKXFZRBNA-N,1-chlorobutane,233.097,243.454,-26827.04,-1842.3484800000008,343.285,6.099480000000001,9.94,10.136,-0.65027,-0.2580899999999999,-0.65027,0.68086,-1.62361,-1.987415583
QTFHBEDSKOMZFW-CYSPOYASNA-N,methanol,516.633,508.013,-50287.99799999999,45.91360000001441,343.285,6.099480000000001,10.335,11.528,-3.44177,-2.9346,-0.66973,0.74483,-4.40045,-0.744727495
OTLNPYWUJOZPPA-BGGKNDAXNA-N,sulfolane,167.121,179.705,-23467.346,-1591.7877297297273,343.285,6.099480000000001,8.68,11.36,-2.06575,0.0760699999999999,-0.58726,0.84645,-1.2193,-0.24361518
RZVAJINKPMORJF-BGGKNDAXNA-N,n-methyl-2-pyrrolidone,151.165,184.955,-23320.496,-401.3066842105254,181.523,3.91782,9.016,10.012,-1.14478,-0.42973,-0.64602,0.66205,-1.58477,0.702861171
OFJWFSNDPCAWDK-WXRBYKJCNA-N,methanol,164.204,202.837,-24233.658,-353.09400000000096,181.523,3.91782,10.388,12.603,-1.10032,-1.04967,-0.60652,0.65127,-1.10032,0.822037248
YNPNZTXNASCQKK-UHFFFAOYNA-N,hexane,178.233,209.472,-23059.716,-678.1361666666635,181.523,3.91782,10.204,13.013000000000002,0.0,-1.54018,-0.16841,0.15757,0.0,-0.55641649
SJEBAWHUJDUKQK-UHFFFAOYNA-N,ethanol,236.27,258.583,-27259.358,-767.6497600000002,181.523,3.91782,8.543000000000001,12.999,-1.1149,-0.92397,-0.56217,0.56889,-1.1149,-1.117000002
YGSDEFSMJLZEOE-BGGKNDAXNA-N,2-butanol,138.123,160.129,-22041.634,-894.8214000000007,155.43,5.00534,9.584,12.718,-1.57712,0.1491299999999999,-0.6172,0.70493,-1.57712,0.29841638
BOCJQSFSGAZAPQ-UHFFFAOYNA-N,methanol,242.661,236.9,-25973.606,-802.1366530612249,155.43,5.00534,8.41,12.856,-1.0876,-0.1167,-0.547,0.57241,-1.15652,-2.254269341
RYYVLZVUVIJVGH-UHFFFAOYNA-N,water,194.193,206.685,-25545.630000000005,-1603.467666666671,155.43,5.00534,11.051,13.393,-1.22083,0.3276099999999999,-0.61437,0.692,-2.23252,-0.981668818
WLJVXDMOQOGPHL-BGGKNDAXNA-N,acetonitrile,136.15,171.567,-22211.86,-1172.806222222218,155.43,5.00534,12.776,11.109,-1.10886,-0.50019,-0.61012,0.68455,-1.10886,0.587710965
BBEAQIROQSPTKN-UHFFFAOYNA-N,1-chlorooctane,202.255,222.477,-22109.906000000003,-1.797014925374242,242.492,0.00110515,9.18,9.156,0.0,-1.62316,-0.17724,0.16382,0.0,-1.065451052
PBZQTKRWYXTXIS-YQFGMCEENA-N,dmso,464.606,468.915,-43360.16199999999,-995.7286666666478,242.492,0.00110515,7.297,9.773,-1.24941,-3.34214,-0.64993,0.66047,-2.1568,-0.744727495
WZWYJBNHTWCXIM-ZTGFOJEANA-N,peg400,337.368,306.601,-31438.45,-656.7726666666676,242.492,0.00110515,8.158,10.489,-2.95456,-0.7984000000000001,-0.96165,2.52721,-1.5532099999999998,-1.801000011
JJVNINGBHGBWJH-UHFFFAOYNA-N,methanol,152.149,177.293,-22758.284,-852.6656000000003,242.492,0.00110515,9.3,11.857,-1.45357,-0.08066,-0.57507,0.46726,-1.45357,0.356025857
FTOAOBMCPZCFFF-XMBMESGPNA-N,methanol,184.194,198.58,-24994.822,-1088.7669999999998,242.492,0.00110515,9.376,14.046,-1.64716,0.3646699999999999,-0.57721,0.70761,-2.65244,-0.045275209
QIQXTHQIDYTFRH-LILDFLRNNA-N,toluene,284.481,389.175,-37044.592,101.69312499999796,242.492,0.00110515,9.667,11.19,-1.06726,-4.0669,-0.57988,0.64967,-1.06726,-1.22184875
MWOOGOJBHIARFG-UHFFFAOYNA-N,water,152.149,179.506,-23071.466,-975.1546000000016,175.844,6.466950000000001,10.701,13.187,-1.44387,-0.09647,-0.58108,0.45391,-1.44387,-1.170395377
WURBFLDFSFBTLW-UHFFFAOYNA-N,fluorobenzene,210.232,239.824,-25284.578,-273.93220408163324,175.844,6.466950000000001,8.435,10.141,-0.98308,-0.67601,-0.49155,0.43434,-0.98308,0.238986397
SEEPANYCNGTZFQ-YHMJCDSINA-N,methanol,250.275,249.115,-26881.937999999995,739.0036470588311,268.15,7.21147,9.833,11.898,-1.9775,-0.54682,-0.99179,2.56571,-1.58296,-2.209526679
YLQWCDOCJODRMT-UHFFFAOYNA-N,2-propanol,180.206,204.757,-22316.714,-499.4302790697657,268.15,7.21147,9.013,12.415,-0.55608,-0.8043199999999999,-0.55608,0.59789,-0.55608,-0.537602002
ONUFSRWQCKNVSL-UHFFFAOYNA-N,"trans-1,2-dimethylcyclohexane",334.116,260.826,-29329.428,89.90580000000045,287.921,0.000394995,9.017,14.836,0.0,0.7598,-0.09544,0.16355,-0.7598,-0.100386683
YLQWCDOCJODRMT-UHFFFAOYNA-N,cyclooctane,180.206,204.757,-22234.908,-417.6242790697616,212.587,4.241,9.058,13.761,-0.49295,-0.79835,-0.49295,0.56789,-0.49295,-0.769551079
TWBYWOBDOCUKOW-FZOZFQFYNA-N,ethanol,123.111,146.808,-20689.812,-521.5899999999965,139.763,2.08227,9.227,13.504,-1.0578,0.25099,-0.58711,0.64937,-1.38404,-2.012375871
FDDDEECHVMSUSB-FSHFIPFONA-N,1-propanol,172.201,184.08,-22913.0,-502.4604444444485,139.763,2.08227,10.151000000000002,11.955000000000002,-1.98214,-0.96346,-0.99929,2.55494,-0.8366699999999998,-1.445132351
WQZGKKKJIJFFOK-GASJEMHNNA-N,thf,180.157,187.173,-26642.088,-1937.8192000000013,139.763,2.08227,9.953,13.178,-3.3123,0.40934,-0.57482,0.35337,-3.3123,-2.110924375
VHHHONWQHHHLTI-UHFFFAOYNA-N,chloroform,236.74,176.295,-21905.716,-45.47330434782271,139.763,2.08227,9.566,10.888,0.0,0.29015,-0.0484,0.14508,-0.29016,0.348972779
ZIMGGGWCDYVHOY-UHFFFAOYNA-N,1-butanol,209.25,234.683,-25939.728000000003,-637.4017142857156,139.763,2.08227,9.415,12.012,-0.33086,-0.23662,-0.6568,0.49067,-2.61151,-1.153010149
QIQXTHQIDYTFRH-LILDFLRNNA-N,chlorobenzene,284.481,394.052,-37411.864,-265.57887499999924,419.255,2.76973,9.839,10.751,-1.09266,-4.08204,-0.60546,0.65589,-1.09266,-1.075720714
MNIPYSSQXLZQLJ-UYBDAZJANA-N,water,354.189,316.078,-33588.934,-493.364999999998,419.255,2.76973,11.163,12.858,-2.02675,-0.12987,-0.58974,0.67561,-2.58993,-2.522878745
ILUJQPXNXACGAN-BGGKNDAXNA-N,3-methoxy-1-butanol,152.149,179.052,-24810.014,-1926.341783783788,177.12,5.35726,9.026,11.891,-1.46692,-0.0773,-0.61396,0.70153,-1.46692,-0.027834341
DKYWVDODHFEZIM-GPQMBLKYNA-N,water,254.285,285.436,-29955.434,-1125.5222222222071,177.12,5.35726,10.669,14.02,-1.68562,-0.89961,-0.62287,0.64381,-1.68562,-3.485333387
RXKNNAKAVAHBNK-UHFFFAOYNA-N,2-ethyl-1-hexanol,140.098,154.652,-20189.736000000004,1338.4676842105257,177.12,5.35726,8.282,13.077000000000002,-1.59167,-0.75143,-0.59331,0.86859,-0.11105,-2.034798299
OTLNPYWUJOZPPA-BGGKNDAXNA-N,1-pentanol,167.121,179.704,-23286.848,-1411.2897297297277,177.12,5.35726,8.245000000000001,13.473,-2.0517,0.0696899999999999,-0.58046,0.84304,-1.20866,-1.045757491
WNLRTRBMVRJNCN-AUDIXQRPNA-N,dmf,146.143,181.842,-24202.33,-1195.8525263157862,176.537,3.50779,9.709,12.667,-2.21506,0.08129,-0.60967,0.66739,-2.21506,-0.518272442
YRHRIQCWCFGUEQ-UHFFFAOYNA-N,"2,2,4-trimethylpentane",212.266,221.762,-24045.414,-852.3231785714233,176.537,3.50779,9.651,13.059,-0.53639,-0.8027299999999999,-0.53639,0.56349,-0.53054,-2.722829197
SQNZJJAZBFDUTD-UHFFFAOYNA-N,water,134.221,191.362,-22376.064,92.58658064516568,195.538,0.00721768,12.034,12.869,0.0,-2.36212,-0.49228,0.172,0.0,-4.589999287
NVKJOXRVEKMMHS-UHFFFAOYNA-N,1-hexanol,128.047,130.739,-20870.624,-1516.109428571428,195.538,0.00721768,5.97,14.969,-1.03102,0.54705,-0.41416,0.85222,-0.54706,-1.423543387
QECIGCMPORCORE-UHFFFAOYNA-N,methanol,206.243,230.263,-24853.202,-956.3668000000034,244.493,4.95211,9.025,11.783,-0.5864,-1.05006,-0.5864,0.4557,-0.5864,-1.392270102
DWCLXOREGBLXTD-UHFFFAOYNA-N,benzene,176.172,185.757,-23965.068,377.5732857142866,244.493,4.95211,8.48,11.717,-1.82556,-1.85403,-0.51404,0.72206,-0.3814599999999999,-1.611232054
BBEAQIROQSPTKN-UHFFFAOYNA-N,1-decanol,202.255,222.477,-22112.542,-4.433014925369207,244.493,4.95211,8.936,11.159,0.0,-1.64676,-0.17802,0.16621,0.0,-0.824488187
GPSDUZXPYCFOSQ-BGGKNDAXNA-N,2-methyl-2-propanol,136.15,170.129,-22062.496,-868.9110857142841,244.493,4.95211,9.571,12.918,-1.08858,-0.48904,-0.60597,0.6573,-1.08858,0.364434395
OIGNJSKKLXVSLS-VWUMJDOONA-N,ethanol,360.449,339.465,-34555.052,318.2419999999984,433.981,13.8841,9.729,13.288,-2.94521,-2.1706,-0.64697,0.64619,-2.94521,-1.171282119
REYJJPSVUYRZGE-UHFFFAOYNA-N,toluene,269.513,396.934,-36859.184,-631.9149999999936,433.981,13.8841,12.915,9.893999999999998,0.0,-4.80188,-0.54182,0.21283,-0.54182,0.127104798
LPNBBFKOUUSUDB-BGGKNDAXNA-N,n-methyl-2-pyrrolidone,136.15,170.189,-22259.234,-1466.7303999999967,167.042,4.19493,8.575999999999999,11.179,-1.10191,-0.50047,-0.61459,0.67179,-1.10191,-0.129320659
XRHGYUZYPHTUJZ-BGGKNDAXNA-N,2-pentanol,156.568,170.601,-23059.772,-1658.9113333333298,167.042,4.19493,9.293,13.011,-1.08316,0.07219,-0.60258,0.66793,-1.17156,-0.818481051
LDZYRENCLPUXAX-UHFFFAOYSA-N,1-butanol,132.165,167.349,-21029.956,-1291.9146666666638,162.016,5.37341,9.908,12.137,0.0,-0.8160099999999999,-0.50533,0.3084,-0.75181,0.19838213
BLFLLBZGZJTVJG-UHFFFAOYNA-N,water,165.191,204.426,-25139.288,-1000.694571428572,162.016,5.37341,11.161,13.113,-1.06362,-0.49721,-0.62944,0.69464,-1.56447,-2.375131263
YSSSPARMOAYJTE-UHFFFAOYNA-N,acetone,360.406,370.451,-35105.10799999999,-90.70705882352196,162.016,5.37341,10.001,9.37,-2.53642,-1.24826,-0.48531,0.23693,-2.53642,-2.036212173
GKODDAXOSGGARJ-KZFATGLANA-N,2-propanol,165.123,173.269,-22308.48,-1042.655200000001,162.016,5.37341,8.678,12.623,-0.95108,0.58518,-0.51312,0.4774,-1.49343,-1.403883544
LPEPZBJOKDYZAD-LILDFLRNNA-N,1-octanol,281.234,279.396,-29048.454,-730.3613333333269,299.888,6.16637,9.391,11.65,-1.0987,0.02633,-0.6223,0.68408,-2.09751,-0.262264518
ILUJQPXNXACGAN-BGGKNDAXNA-N,1-tert-butoxy-2-propanol,152.149,179.179,-23367.824,-484.15178378378914,299.888,6.16637,9.193,11.399,-1.46156,-0.07584,-0.61022,0.6998,-1.46156,-0.283176892
PJANXHGTPQOBST-VAWYXSNFNA-N,benzene,180.249,233.489,-24134.034,-700.6677777777768,299.888,6.16637,9.049,9.192,0.0,-1.84157,-0.18503,0.15614,0.0,-0.18117136
VPHHJAOJUJHJKD-KZFATGLANA-N,1-propanol,191.013,187.66,-23958.69,-2311.016969696964,189.242,0.302526,9.022,12.834,-1.07121,0.241,-0.59535,0.66732,-1.18444,-0.61719998
PVNIIMVLHYAWGP-FZOZFQFYNA-N,dmso,123.111,147.203,-20852.346,-612.6876363636366,189.242,0.302526,7.262,11.72,-1.07891,0.36585,-0.59799,0.6853,-1.46948,-0.19601268
NIHNNTQXNPWCJQ-UHFFFAOYNA-N,hexane,166.222,200.685,-21547.258,-145.12699999999677,206.994,0.56121,10.63,13.222,0.0,-1.58198,-0.32116,0.17592,0.0,-0.624236413
ODVLMCWNGKLROU-KZFATGLANA-N,dmso,180.16,196.59,-23561.128000000004,-93.91080000000512,198.621,2.52581,8.026,9.976,-1.83683,0.1601299999999999,-0.59723,0.67851,-1.83683,0.729974286
BOCJQSFSGAZAPQ-UHFFFAOYNA-N,ethanol,242.661,236.9,-25966.57,-795.1006530612249,256.833,1.90377,8.432,12.96,-1.08415,-0.11913,-0.54545,0.57143,-1.15239,-2.210257092
ZNNLBTZKUZBEKO-PLJOYGPPNA-N,acetone,494.004,476.684,-43041.318,-1142.1839999999938,256.833,1.90377,9.34,10.062,-3.65318,-1.89278,-0.96833,2.56331,-3.0072,-3.672549079
FDDDEECHVMSUSB-FSHFIPFONA-N,2-butanol,172.201,184.356,-22963.674,-553.1344444444476,184.626,5.36384,10.195,12.154,-2.00538,-0.93117,-1.0031,2.54159,-0.8623800000000004,-2.08420278
CIWBSHSKHKDKBQ-JLAZNSOCNA-N,acetonitrile,176.126,183.592,-24195.158,-264.1145000000033,184.626,5.36384,11.733,11.15,-2.92072,0.7890600000000001,-0.589,0.64361,-2.92072,-2.31065044
LDHQCZJRKDOVOX-GSMIJIFMNA-N,chloroform,86.0902,125.366,-19479.614,-427.2030000000013,184.626,5.36384,10.92,10.177,-1.10041,-0.1681199999999999,-0.60918,0.68322,-1.10041,0.865257792
WXTMDXOMEHJXQO-KZFATGLANA-N,1-octanol,154.122,169.122,-23233.136,-947.7548571428596,184.626,5.36384,9.261,12.04,-2.03917,0.3901,-0.58697,0.6827,-2.03917,-0.130090896
JGMBHJNMQVKDMW-UHFFFAOYNA-N,2-propanol,291.176,286.916,-29503.216000000004,-1653.2194285714322,323.897,4.40035,9.738,12.688,-0.61059,-1.35014,-0.61059,0.61637,-0.7666499999999999,-1.438631846
PJANXHGTPQOBST-VAWYXSNFNA-N,heptane,180.249,233.955,-25087.172,-1653.8057777777758,323.897,4.40035,10.655,13.057,0.0,-1.84227,-0.18782,0.16107,0.0,-1.12405718
DMIYKWPEFRFTPY-UHFFFAOYNA-N,acetonitrile,175.014,175.748,-22183.71,-1166.6929999999993,177.872,5.85183,11.571,11.257,-0.54458,-0.0167799999999999,-0.54458,0.47005,-0.69617,0.130333768
OTLNPYWUJOZPPA-BGGKNDAXNA-N,water,167.121,179.686,-23644.778,-1769.2197297297243,177.872,5.85183,9.679,14.596,-2.06932,0.0776999999999999,-0.589,0.84731,-1.22201,-2.848750001
GVEPBJHOBDJJJI-UHFFFAOYNA-N,1-octanol,202.255,227.244,-23051.772,-487.8522040816242,177.872,5.85183,8.991,11.602,0.0,-1.63794,-0.1561,0.16673,0.0,-0.746080917
OIGXDZJSRMPECU-UHFFFAOYNA-N,ethanol,272.26,286.508,-29648.974,915.4453333333296,307.508,8.149469999999999,9.024,12.219,-1.93899,-1.09559,-0.59269,0.87103,-1.24897,-1.301029996
KSKWGMNRWCYVAT-UHFFFAOYNA-N,acetone,256.255,264.714,-31135.173999999995,378.7354285714355,307.508,8.149469999999999,9.547,11.566,-3.03894,0.0526899999999998,-0.57849,0.68353,-3.03894,-1.219322085
QELSKZZBTMNZEB-UHFFFAOYNA-N,water,180.203,220.365,-25360.416000000005,-482.1285454545505,307.508,8.149469999999999,11.009,13.751,-1.53115,-0.6502800000000001,-0.61868,0.69156,-1.53115,-2.614633326
ZUOUZKKEUPVFJK-UHFFFAOYNA-N,1-butanol,154.211,198.05,-21604.304,-785.6748148148108,201.225,0.00151165,10.053,12.204,0.0,-1.59867,-0.1794,0.16267,0.0,-0.218088956
PJANXHGTPQOBST-VAWYXSNFNA-N,2-methyl-1-pentanol,180.249,233.288,-24213.41,-780.043777777777,235.39,0.00764061,9.508,11.749,0.0,-1.91769,-0.19024,0.16248,0.0,-1.321245755
LPNBBFKOUUSUDB-BGGKNDAXNA-N,thf,136.15,170.139,-22323.064,-1530.5603999999985,164.982,4.19542,8.783,12.352,-1.10174,-0.4997499999999999,-0.6145,0.67164,-1.10174,0.204437837
SJEBAWHUJDUKQK-UHFFFAOYNA-N,1-propanol,236.27,258.496,-27222.85000000001,-731.1417600000059,164.982,4.19542,8.375,12.912,-1.11221,-0.92521,-0.5608,0.56819,-1.11221,-1.454000001
ILUJQPXNXACGAN-BGGKNDAXNA-N,4-methyl-2-pentanol,152.149,179.474,-23482.57,-598.8977837837847,164.982,4.19542,9.707,12.476,-1.47068,-0.0759899999999999,-0.61621,0.70282,-1.47068,-0.494850022
CMWTZPSULFXXJA-GTNTULIANA-N,benzene,230.263,261.207,-27990.630000000005,-304.6857714285761,278.261,1.61555,8.772,8.982999999999999,-1.42308,-1.06677,-0.56253,0.61982,-1.42308,-1.06327627
UDUNORRTIFRHKX-LBOYIXSDNA-N,ethanol,495.402,497.188,-45453.138,-829.4730000000054,278.261,1.61555,9.943,11.424,-2.54126,-1.3473,-0.61432,0.67567,-3.7802,-1.318758763
LNEPOXFFQSENCJ-UHFFFAOYNA-N,"1,4-dioxane",375.87,394.676,-36420.994,-1179.0622222222228,278.261,1.61555,8.793000000000001,10.509,-1.12434,-2.08344,-0.59162,0.57595,-1.71727,-1.19716949
HVYWMOMLDIMFJA-DPAQBDIFNA-N,ethanol,386.66,434.338,-40688.26,-1926.799272727272,542.567,3.05204,11.842,12.124,-0.62611,-6.06209,-0.62611,0.33634,-0.62611,-1.287205297
UVEWQKMPXAHFST-UHFFFAOYNA-N,methanol,181.237,229.978,-24957.996,-1595.065249999996,542.567,3.05204,9.846,12.187,0.0,-1.43711,-0.37309,0.17278,-0.37309,0.170261715
MWPLVEDNUUSJAV-UHFFFAOYNA-N,1-butanol,178.233,211.323,-21534.028,705.4904571428597,542.567,3.05204,8.87,11.13,0.0,-1.64315,-0.19827,0.17098,0.0,-2.045757491
VRPJIFMKZZEXLR-DEPUQRHONA-N,toluene,175.184,208.328,-26640.04,-257.8206153846113,214.483,1.69494,9.227,11.056,-2.1392,-0.09574,-0.60529,0.72649,-2.58207,-0.721246399
YLQWCDOCJODRMT-UHFFFAOYNA-N,4-methyl-2-pentanol,180.206,204.757,-22306.212,-488.92827906976527,214.483,1.69494,8.9,12.345,-0.54966,-0.80416,-0.54966,0.59508,-0.54966,-0.537602002
BTJIUGUIPKRLHP-UHFFFAOYNA-N,acetonitrile,139.11,157.972,-20842.188,2644.443,214.483,1.69494,11.248,11.374,-1.52919,-0.4851299999999999,-0.5323,0.876,-0.65319,0.73255458
SEEPANYCNGTZFQ-YHMJCDSINA-N,1-pentanol,250.275,248.79,-26429.104,1191.8376470588264,214.483,1.69494,9.658,11.918,-1.96947,-0.55115,-0.98718,2.56045,-1.5679800000000002,-3.52511075
CMWTZPSULFXXJA-GTNTULIANA-N,heptane,230.263,261.051,-28735.18,-1049.235771428568,277.93600000000004,4.36429,10.135,12.649,-1.40974,-1.06027,-0.55328,0.61577,-1.40974,-1.920818754
CDVNZMKTJIBBBV-WXRBYKJCNA-N,1-hexanol,226.145,221.449,-26533.826,-1450.9813333333295,230.454,5.767,8.311,14.096,-2.98503,-0.16422,-0.57429,0.87707,-1.23436,-0.967279542
UFWIBTONFRDIAS-UHFFFAOYNA-N,"trans-1,4-dimethylcyclohexane",128.173,165.632,-19436.03,160.75303030303257,230.454,5.767,9.872,12.619,0.0,-1.22591,-0.16914,0.15519,0.0,0.020922375