InChIkey,Solvent,MW,SASA,G_sol,DeltaG_sol,Volume,sol_dip,LsoluHsolv,LsolvHsolu,O_charges,C_charges,Most_neg,Most_pos,Het_charges,LogS
XMTQQYYKAHVGBJ-XWKXFZRBNA-N,methanol,233.097,243.488,-26680.230000000003,-1695.538480000003,251.30400000000003,7.3422,9.86,11.906,-0.67113,-0.26625,-0.67113,0.68295,-1.64001,-0.729999999
FTOAOBMCPZCFFF-XMBMESGPNA-N,water,184.194,197.38,-25962.028,-2055.973000000002,215.717,3.2019,10.616,15.249,-1.64294,0.37875,-0.57991,0.70508,-2.64342,-1.728313342
DFYRUELUNQRZTB-UHFFFAOYNA-N,1-propanol,166.176,196.89,-24651.264,-708.1049999999996,215.717,3.2019,9.385000000000002,12.010000000000002,-1.46815,-0.55396,-0.63757,0.63663,-1.46815,-0.500312917
HCUARRIEZVDMPT-WXRBYKJCNA-N,"1,4-dioxane",161.16,184.556,-22876.876,-637.0399999999972,183.584,1.7482700000000002,8.676,10.633,-1.03477,-0.2397599999999999,-0.56651,0.65624,-1.20785,-1.315287836
ZWLPBLYKEWSWPD-BGGKNDAXNA-N,2-pentanol,136.15,166.378,-22219.486000000004,-1211.403250000003,164.759,2.77322,9.643,12.72,-1.10317,-0.4884200000000001,-0.60617,0.67711,-1.10317,0.225309282
WMKGGPCROCCUDY-PHEQNACWNA-N,acetone,234.297,291.767,-28779.86800000001,-673.6566666666731,164.759,2.77322,9.057,10.243,-0.61119,-1.73709,-0.61119,0.62242,-0.61119,-0.403402904
RXKNNAKAVAHBNK-UHFFFAOYNA-N,chlorobenzene,140.098,154.652,-20154.936,1373.2676842105284,164.759,2.77322,7.569,10.143,-1.57392,-0.7623500000000001,-0.58272,0.86547,-0.09597,-1.236572006
IUWVALYLNVXWKX-UHFFFAOYNA-N,water,193.245,242.79,-27208.24,-996.8910000000031,246.198,4.8194300000000005,11.16,13.114,-1.06199,-1.02216,-0.62853,0.69316,-1.5628,-2.826499922
IJFXRHURBJZNAO-BGGKNDAXNA-N,water,138.123,160.602,-21866.06,-722.8166666666693,154.51000000000002,1.9027,10.671,13.591,-1.57362,0.10767,-0.60504,0.65139,-1.57362,-1.464399994
DBUKZZKLTUXIQM-UHFFFAOYNA-N,"1,2-dichloroethane",362.335,371.315,-39775.398,-1547.510500000004,398.181,3.71041,9.537,9.765,-3.66005,0.18897,-0.58855,0.66109,-3.66005,-2.301029996
BBYDXOIZLAWGSL-BGGKNDAXNA-N,acetonitrile,140.114,158.548,-22238.572,-1637.474000000002,398.181,3.71041,11.769,11.773,-1.0945900000000002,0.1447999999999999,-0.61289,0.67694,-1.25685,-0.413728826
ROORDVPLFPIABK-UHFFFAOYNA-N,methanol,214.22,244.888,-26030.068,-830.1702857142882,398.181,3.71041,9.416,12.809,-1.33525,-0.42216,-0.56184,0.76627,-1.33525,-0.46419782
OFJWFSNDPCAWDK-WXRBYKJCNA-N,thf,164.204,201.747,-24433.17,-552.6059999999998,398.181,3.71041,9.441,12.12,-1.09038,-1.0286,-0.61221,0.64206,-1.09038,0.77524626
QQVIHTHCMHWDBS-FLKJISBTNA-N,1-hexanol,166.133,182.402,-24479.282,-1799.5138461538445,398.181,3.71041,9.111,13.472,-2.16,0.71535,-0.59891,0.67235,-2.16,-1.7102344
BLUAFEHZUWYNDE-NNWCWBAJNA-N,butanone,282.336,268.178,-29881.474,-990.1603636363616,398.181,3.71041,8.806,10.757,-2.00018,-1.63144,-0.57296,0.68277,-2.00018,-0.454966907
LVHBHZANLOWSRM-HJYFZBQUNA-N,water,130.1,153.563,-22269.098,-1018.0704999999944,147.69199999999998,4.371840000000001,11.022,15.127,-2.18902,0.65802,-0.60962,0.67559,-2.18902,-0.224117179
KGCNHWXDPDPSBV-UHFFFAOYNA-N,acetophenone,171.583,186.222,-22593.844,-1982.9298461538456,147.69199999999998,4.371840000000001,8.290000000000001,9.918,-1.0355,-0.80077,-0.51795,0.85655,-0.3343099999999999,0.376424859
ISAOCJYIOMOJEB-UHFFFAOYNA-N,2-methyl-1-propanol,212.248,245.301,-26536.642000000003,-864.8693157894777,259.088,2.25844,9.274,12.898,-1.08982,-1.08088,-0.54596,0.52134,-1.08982,-1.733699824
GFLHGSIWKATBCA-UHFFFAOYNA-N,2-propanol,304.398,240.808,-27336.67,-1770.255428571425,259.088,2.25844,9.603,12.868,-0.41162,-0.3712,-0.41162,0.20613,-0.74514,-0.758553575
OTLNPYWUJOZPPA-BGGKNDAXNA-N,1-heptanol,167.121,179.815,-23295.82,-1420.2617297297256,259.088,2.25844,8.267,13.454,-2.045,0.0663699999999999,-0.57727,0.84132,-1.20368,-1.096910013
NJGBTKGETPDVIK-UHFFFAOYNA-N,1-propanol,164.204,210.161,-24477.672,-425.1690000000017,259.088,2.25844,10.265,11.961,-1.12174,-1.24785,-0.65043,0.64344,-1.12174,0.563788364
SEEPANYCNGTZFQ-YHMJCDSINA-N,"1,2-propanediol",250.275,248.783,-26777.624000000003,843.3176470588223,259.088,2.25844,9.728,11.363,-1.97869,-0.54877,-0.99137,2.5665,-1.58021,-2.326233896
SJEBAWHUJDUKQK-UHFFFAOYNA-N,heptane,236.27,258.693,-27112.616,-620.9077600000019,259.088,2.25844,9.222,14.123,-1.00477,-0.96375,-0.50612,0.53847,-1.00477,-1.573000001
DTXVKPOKPFWSFF-MDVJYLRGNA-N,toluene,129.549,145.76,-20314.44,-423.5664999999972,136.622,5.38543,8.094,10.287999999999998,0.0,-0.07949,-0.45232,0.26127,-0.82958,-3.322859526
YRHRIQCWCFGUEQ-UHFFFAOYNA-N,chlorobenzene,212.266,221.762,-24406.42,-1213.3291785714246,236.332,2.9806,8.328,8.921000000000001,-0.57379,-0.7982,-0.57379,0.58292,-0.58031,-1.07102492
QELSKZZBTMNZEB-UHFFFAOYNA-N,1-octanol,180.203,216.669,-25959.246000000003,-1080.9585454545486,222.188,1.57166,9.686,12.573,-1.51027,-0.6385199999999999,-0.61291,0.686,-1.51027,0.234882952
FAOHQGXEASKQDL-AHPDCHJINA-N,1-butanol,215.685,249.353,-29254.344,-3225.3225454545427,222.188,1.57166,9.418,12.674,0.0,-0.1152399999999999,-0.56203,0.49293,-2.40124,-1.218797285
DAUAQNGYDSHRET-KZFATGLANA-N,2-propanol,182.176,208.223,-26518.376000000004,-2168.959846153848,207.487,3.3901700000000003,9.561,12.095,-1.8432,-0.06207,-0.61249,0.6697,-1.8432,-1.036882384
WJFKNYWRSNBZNX-UHFFFAOYNA-N,butyronitrile,199.27,217.26,-25002.026,-1755.406000000003,207.487,3.3901700000000003,11.624,9.447,0.0,-1.22448,-0.3988,0.30039,-0.43637,-0.225178791
QTFHBEDSKOMZFW-CYSPOYASNA-N,ethanol,516.633,524.286,-50455.28999999999,-121.3783999999796,207.487,3.3901700000000003,10.165,11.83,-3.39202,-3.00962,-0.65013,0.74194,-4.35627,-1.15490196
RXKNNAKAVAHBNK-UHFFFAOYNA-N,2-methyl-2-propanol,140.098,154.652,-20186.962,1341.2416842105304,207.487,3.3901700000000003,8.462,13.313,-1.61001,-0.73982,-0.6044,0.87176,-0.1268800000000001,-1.341035157
YLQWCDOCJODRMT-UHFFFAOYNA-N,butyronitrile,180.206,204.757,-22315.722,-498.43827906976367,207.487,3.3901700000000003,10.572,10.768,-0.55628,-0.8043100000000001,-0.55628,0.59798,-0.55628,0.285557309
WQLVFSAGQJTQCK-UHFFFAOYNA-N,peg400,414.627,412.113,-37130.288,-43.700000000004366,207.487,3.3901700000000003,11.135,10.323,-1.68715,-4.65999,-0.61549,0.53697,-1.68715,-2.110999999
RXKNNAKAVAHBNK-UHFFFAOYNA-N,"2,2,4-trimethylpentane",140.098,154.652,-20079.628,1448.5756842105293,207.487,3.3901700000000003,8.75,14.415,-1.48036,-0.81504,-0.52924,0.84788,-0.0202600000000001,-3.63638802
LNEPOXFFQSENCJ-UHFFFAOYNA-N,methanol,375.87,388.091,-35940.958,-699.0262222222227,207.487,3.3901700000000003,9.574,11.634,-1.22103,-2.08985,-0.61848,0.60586,-1.84212,-1.400076889
PEGCITODQASXKH-UHFFFAOYNA-N,o-xylene,216.219,242.18,-27798.980000000003,-720.5817142857122,207.487,3.3901700000000003,8.794,10.459,-0.95847,-2.67459,-0.95847,1.4576,0.4991299999999999,-0.558759728
SZTDSGCADFWGKM-UHFFFAOYNA-N,2-propanol,224.236,261.393,-29105.896,4553.010666666676,281.524,7.774450000000001,13.023,13.489,-2.84398,-2.65708,-1.0001,1.50513,-1.33885,-0.581167502
FFGPTBGBLSHEPO-ZHLVXTBQNA-N,dmso,236.273,250.513,-26917.468,-1062.3129999999946,281.524,7.774450000000001,7.723,9.863,-0.6668,-0.66646,-0.6668,0.69293,-1.60708,-0.60223471
UFWIBTONFRDIAS-UHFFFAOYNA-N,"trans-1,2-dimethylcyclohexane",128.173,165.632,-19433.054,163.72903030303496,281.524,7.774450000000001,9.867,12.675999999999998,0.0,-1.2259,-0.16916,0.15519,0.0,0.029731174
DTUOTSLAFJCQHN-UHFFFAOYNA-N,methanol,277.074,223.335,-26647.822,-1025.9040000000025,281.524,7.774450000000001,8.314,12.549,-1.52282,0.6463000000000001,-0.53323,0.7258,-1.58259,-2.399035159
SWJPEBQEEAHIGZ-UHFFFAOYNA-N,cyclohexane,235.906,168.859,-20951.024,-1931.5911764705925,281.524,7.774450000000001,9.994,13.855,0.0,-0.5373600000000001,-0.14049,0.17758,-0.1728,0.018365937
PCMORTLOPMLEFB-VENOTMPWNA-N,ethanol,224.213,252.015,-29637.468,-872.2419999999984,281.524,7.774450000000001,9.324000000000002,11.938,-2.33468,-0.1576399999999999,-0.62025,0.67956,-2.33468,-0.599641461
SKZKKFZAGNVIMN-FSHFIPFONA-N,2-butoxyethanol,137.138,161.123,-21116.136,-616.9241176470532,281.524,7.774450000000001,9.401,11.5,-1.18024,0.0645499999999999,-0.68393,0.64738,-1.72591,-0.162733183
WWZKQHOCKIZLMA-BGGKNDAXNA-N,thf,144.213,205.912,-24862.852000000003,-1164.1784999999982,281.524,7.774450000000001,9.853,13.494,-1.11263,-1.46335,-0.61253,0.66281,-1.11263,-2.15490196
XPCTZQVDEJYUGT-UHFFFAOYNA-N,methanol,126.112,149.072,-20622.86,-616.5777500000004,141.146,6.035880000000001,9.667,12.412,-1.34398,-0.04539,-0.62208,0.57029,-1.34398,-0.230439801
RYYVLZVUVIJVGH-UHFFFAOYNA-N,peg400,194.193,206.692,-25603.793999999994,-1661.6316666666607,141.146,6.035880000000001,9.073,10.538,-1.20159,0.3248699999999999,-0.6035,0.68824,-2.21343,-1.219
OBKXEAXTFZPCHS-WXRBYKJCNA-N,1-hexanol,164.204,208.283,-24206.042,-399.592333333334,141.146,6.035880000000001,10.527,12.464,-1.10813,-1.06017,-0.61952,0.67153,-1.10813,-0.301029996
GVIJJXMXTUZIOD-UHFFFAOYNA-N,2-methyl-1-pentanol,216.315,223.495,-23486.5,-487.86231578947263,239.595,2.09616,9.546,11.591,0.0,-1.29258,-0.14218,0.17631,-0.08821,-1.641230643
OTLNPYWUJOZPPA-BGGKNDAXNA-N,3-methyl-1-butanol,167.121,179.686,-23269.468,-1393.909729729727,239.595,2.09616,8.102,13.658,-2.05112,0.0694199999999999,-0.58019,0.8429,-1.2082199999999998,-1.15490196
GJCOSYZMQJWQCA-UHFFFAOYNA-N,1-pentanol,182.221,210.426,-22720.266000000003,-711.8855121951274,218.229,2.15692,10.094,11.669,-0.36694,-1.33523,-0.36694,0.24998,-0.36694,-0.698970004
WBYWAXJHAXSJNI-KZFATGLANA-N,1-propanol,148.161,181.074,-22785.797999999995,-526.2623749999984,218.229,2.15692,9.602,12.548000000000002,-1.10007,-0.4407,-0.60246,0.68686,-1.10007,-0.035390918
WNLRTRBMVRJNCN-AUDIXQRPNA-N,acetone,146.143,184.752,-23710.802,-704.3245263157842,218.229,2.15692,10.394,12.204,-2.21895,0.08039,-0.61903,0.67006,-2.21895,-0.615387134
YRHRIQCWCFGUEQ-UHFFFAOYNA-N,water,212.266,221.762,-25156.92,-1963.8291785714248,236.332,3.26098,10.448,13.033,-0.59974,-0.79429,-0.59974,0.5952,-0.6141000000000001,-5.540000226
POULHZVOKOAJMA-NDKGDYFDNA-N,hexane,200.32,288.697,-29947.026,-965.3260000000008,289.431,2.45895,11.359,15.378,-1.04956,-2.53395,-0.56312,0.63856,-1.04956,0.221781073
QIQXTHQIDYTFRH-LILDFLRNNA-N,1-butanol,284.481,386.402,-37145.836,0.449125000006461,289.431,2.45895,10.586,13.662,-1.11546,-4.07392,-0.62683,0.67283,-1.11546,-0.216871172
UJOBWOGCFQCDNV-UHFFFAOYNA-N,methylcyclohexane,167.21,198.372,-21780.82,-120.0695999999989,289.431,2.45895,10.294,12.667000000000002,0.0,-1.21802,-0.2963,0.27814,-0.2963,-2.80904057
AFPHTEQTJZKQAQ-BGGKNDAXNA-N,2-methyl-2-propanol,167.121,179.627,-23172.388,-1355.5202222222215,289.431,2.45895,8.666,13.934,-2.08249,0.1003099999999999,-0.59071,0.86226,-1.22023,0.350863334
BBEAQIROQSPTKN-UHFFFAOYNA-N,trifluoroethanol,202.255,222.477,-22119.77,-11.661014925372,289.431,2.45895,9.896,9.283,0.0,-1.67012,-0.17873,0.16856,0.0,-3.330683119
ILUJQPXNXACGAN-BGGKNDAXNA-N,2-methyl-1-butanol,152.149,178.965,-23793.19,-909.5177837837872,289.431,2.45895,9.432,12.422,-1.47596,-0.07416,-0.60527,0.69891,-1.47596,-0.408935393
RZVAJINKPMORJF-BGGKNDAXNA-N,water,151.165,185.006,-24348.844,-1429.6546842105272,289.431,2.45895,11.449,12.82,-1.16594,-0.43127,-0.66153,0.66497,-1.60086,-1.022788577
DWCLXOREGBLXTD-UHFFFAOYNA-N,dmso,176.172,186.034,-25265.194000000003,-922.5527142857172,209.303,0.00759535,6.986,12.282,-1.92269,-1.90603,-0.52477,0.75261,-0.41774,-1.122511243
DFXQXFGFOLXAPO-KZFATGLANA-N,1-propanol,201.566,197.216,-24772.92,-1506.0386470588237,209.303,0.00759535,8.689,13.419,-2.01472,0.2145399999999999,-0.58876,0.86387,-1.17908,-0.431798276
SYTBZMRGLBWNTM-HCKMINDGNA-N,acetonitrile,244.265,269.535,-29045.428,-1137.2644999999975,290.75600000000003,2.58175,12.106,10.764,-1.08962,-1.1747999999999998,-0.61809,0.64648,-1.25297,-0.266802735
ALYNCZNDIQEVRV-BGGKNDAXNA-N,3-methyl-1-butanol,137.138,165.819,-21944.672,-1043.7362758620657,290.75600000000003,2.58175,9.539,12.174,-1.11825,0.02363,-0.62721,0.6834,-1.61569,-0.73754891
RZVAJINKPMORJF-BGGKNDAXNA-N,hexane,151.165,184.993,-23334.85,-415.6606842105248,290.75600000000003,2.58175,10.808,13.119,-1.04538,-0.41522,-0.62179,0.64464,-1.5004,-1.4488776021929823
NQTPEBUGIFUYEC-UHFFFAOYNA-N,ethanol,227.262,267.792,-27982.240000000005,-971.2896666666712,290.75600000000003,2.58175,9.704,11.887,-0.86876,-1.15451,-0.48781,0.35837,-1.23591,-1.062759091
MWPLVEDNUUSJAV-UHFFFAOYNA-N,chloroform,178.233,211.323,-21524.766,714.7524571428585,290.75600000000003,2.58175,9.939,7.507,0.0,-1.60724,-0.19586,0.16716,0.0,-0.876148359
FZERHIULMFGESH-BGGKNDAXNA-N,methanol,135.165,175.134,-22489.84,-383.1438333333317,169.83,5.4817800000000005,10.278,11.967,-0.65193,-0.6809400000000001,-0.65193,0.66992,-1.10474,0.430075056
XMTQQYYKAHVGBJ-XWKXFZRBNA-N,methylcyclohexane,233.097,243.148,-27346.334,-2361.6424799999986,251.01,7.580719999999999,10.102,13.316,-0.59516,-0.2434999999999999,-0.59516,0.67254,-1.56597,-3.432820657
ILUJQPXNXACGAN-BGGKNDAXNA-N,thf,152.149,178.592,-23815.898,-932.2257837837896,251.01,7.580719999999999,8.767,11.895,-1.4742700000000002,-0.07466,-0.60411,0.69842,-1.4742700000000002,0.305351369
CMWTZPSULFXXJA-GTNTULIANA-N,formamide,230.263,260.339,-28495.402,-809.4577714285733,251.01,7.580719999999999,9.614,9.675,-1.50103,-1.1110099999999998,-0.61059,0.64566,-1.50103,-0.860120914
CMWTZPSULFXXJA-GTNTULIANA-N,2-propanol,230.263,262.059,-29256.155999999995,-1570.2117714285669,278.805,4.86204,9.557,11.731000000000002,-1.49238,-1.10418,-0.60356,0.64318,-1.49238,-0.706164494
YXVFYQXJAXKLAK-UHFFFAOYNA-N,"2,2,4-trimethylpentane",170.21,208.375,-23255.872000000003,-914.0010000000002,278.805,4.86204,10.636,13.105999999999998,-0.47435,-1.28281,-0.47435,0.33304,-0.47435,-2.906578315
CWRYPZZKDGJXCA-UHFFFAOYNA-N,decane,154.211,187.048,-20940.35,421.57880000000296,192.352,1.34736,10.297,12.58,0.0,-1.57085,-0.2929,0.16217,0.0,-0.386792648
GSBSDUZVSCTUKA-PKSOQXRJNA-N,thf,288.345,309.568,-28676.62,-0.2890666666680772,347.13300000000004,2.80978,8.068,10.567,-1.10053,-1.78143,-0.61395,0.66661,-1.10053,-0.090508157
AFPHTEQTJZKQAQ-BGGKNDAXNA-N,"1,4-dioxane",167.121,179.627,-22693.26,-876.3922222222245,347.13300000000004,2.80978,7.869000000000001,12.736,-1.9808,0.05376,-0.54279,0.83817,-1.14263,0.315331425
BXRFQSNOROATLV-UHFFFAOYNA-N,dmf,151.121,171.355,-21946.926,639.6169999999984,347.13300000000004,2.80978,7.381,11.739,-1.53543,-0.2063799999999999,-0.53046,0.84225,-0.6931799999999999,0.226342087
QQVIHTHCMHWDBS-FLKJISBTNA-N,1-pentanol,166.133,182.649,-24667.07,-1987.301846153841,347.13300000000004,2.80978,9.106,13.395,-2.1622,0.7164200000000001,-0.60161,0.67318,-2.1622,-1.443468981
RINCXYDBBGOEEQ-UHFFFAOYNA-N,2-propanol,100.074,120.614,-18411.682,-668.8835000000036,347.13300000000004,2.80978,9.849,14.803999999999998,-1.44218,0.5426699999999999,-0.50571,0.68656,-1.44218,0.156303397
KZTYYGOKRVBIMI-UHFFFAOYNA-N,1-decanol,218.27,232.098,-26573.532000000003,-365.74808333333567,347.13300000000004,2.80978,9.916,12.962,-1.98073,-2.09831,-0.99049,2.45168,0.4709500000000001,-1.612558649
VHHHONWQHHHLTI-UHFFFAOYNA-N,heptane,236.74,176.294,-21900.430000000004,-40.18730434782992,347.13300000000004,2.80978,9.254,15.627,0.0,0.29581,-0.04933,0.14791,-0.29581,0.028808442
VHHHONWQHHHLTI-UHFFFAOYNA-N,benzene,236.74,176.295,-21901.01,-40.76730434782439,347.13300000000004,2.80978,7.895000000000001,11.956,0.0,0.29434,-0.04908,0.14717,-0.29434,0.308397261
WURBFLDFSFBTLW-UHFFFAOYNA-N,cyclohexanone,210.232,239.885,-25639.930000000004,-629.2842040816358,247.814,0.00449475,8.194,10.748,-1.0127,-0.67307,-0.5064,0.44966,-1.0127,0.297209796
ONUFSRWQCKNVSL-UHFFFAOYNA-N,"trans-1,4-dimethylcyclohexane",334.116,260.826,-29330.620000000003,88.71379999999044,287.921,0.000386844,9.021,14.779,0.0,0.75979,-0.09544,0.16354,-0.7598,-0.051777658
ILUJQPXNXACGAN-BGGKNDAXNA-N,1-pentanol,152.149,176.791,-23002.402,-118.72978378379048,176.876,5.01047,9.491,12.726,-1.51357,-0.0187199999999999,-0.6172,0.69591,-1.51357,-0.327902142
YGSDEFSMJLZEOE-BGGKNDAXNA-N,cyclohexanone,138.123,157.307,-21692.526,-545.7134000000005,176.876,5.01047,8.924,10.393,-1.58719,0.15147,-0.62803,0.69459,-1.58719,0.351603072
YLQWCDOCJODRMT-UHFFFAOYNA-N,methylcyclohexane,180.206,204.757,-22238.278,-420.99427906976416,176.876,5.01047,9.274,13.61,-0.49295,-0.79831,-0.49295,0.56789,-0.49295,-0.853871964
QUEKGYQTRJVEQC-KZFATGLANA-N,2-propanol,201.566,196.096,-25070.272000000004,-1562.3906086956558,176.876,5.01047,8.608,13.601,-2.05904,0.25797,-0.57338,0.86876,-1.22826,0.053078443
MWPLVEDNUUSJAV-UHFFFAOYNA-N,butyronitrile,178.233,211.323,-21534.036,705.482457142858,176.876,5.01047,10.646,9.604,0.0,-1.64518,-0.1984,0.17119,0.0,-1.28953758
PZPZDEIASIKHPY-UHFFFAOYNA-N,chlorobenzene,242.234,256.646,-27134.396,-412.2713333333377,274.599,4.92891,7.922,9.967,-1.58027,-0.67908,-0.5631,0.86426,-1.25255,-0.297676355
KZTYYGOKRVBIMI-UHFFFAOYNA-N,2-methyl-2-propanol,218.27,232.138,-25874.068,333.71591666667155,274.599,4.92891,9.975,13.127,-1.99021,-2.10007,-0.99519,2.45544,0.4652299999999998,-1.339231007
XVOYSCVBGLVSOL-UDYUCESTNA-N,thf,169.152,165.869,-23803.834000000003,-870.8080000000045,164.578,8.28269,9.336,13.333,-3.77793,-0.23336,-0.96583,2.57434,-1.7247100000000002,0.608659827
VHHHONWQHHHLTI-UHFFFAOYNA-N,octane,236.74,176.295,-21901.022,-40.7793043478232,164.578,8.28269,9.199,15.634,0.0,0.29541,-0.04926,0.14771,-0.29542,0.004512838
XQXPVVBIMDBYFF-KZFATGLANA-N,chloroform,152.149,181.177,-23140.759999999995,-1241.8687499999978,164.578,8.28269,11.195,8.595,-1.57087,-0.2326399999999999,-0.58138,0.66401,-1.57087,0.1752218
QUEKGYQTRJVEQC-KZFATGLANA-N,2-butanol,201.566,196.614,-24758.93,-1251.0486086956516,164.578,8.28269,8.42,13.622,-2.0478,0.2497699999999999,-0.57618,0.86729,-1.21899,-0.040958608
GVEPBJHOBDJJJI-UHFFFAOYNA-N,1-hexanol,202.255,227.244,-23056.924,-493.0042040816261,243.057,0.379944,8.927999999999999,11.675,0.0,-1.64361,-0.15647,0.16727,0.0,-0.802168307
QFOHBWFCKVYLES-UHFFFAOYNA-N,peg400,194.23,232.714,-27112.722,-1043.2270769230818,243.057,0.379944,9.066,10.876,-1.50736,-0.8854500000000001,-0.62061,0.67812,-1.50736,0.425
VLYWMPOKSSWJAL-YAQRNVERNA-N,acetone,280.301,280.431,-29550.714,-272.429416666666,301.117,8.59656,8.953,9.825,-2.29138,-0.95654,-0.98242,2.55586,-1.5051,-0.858011006
CMWTZPSULFXXJA-YAQRNVERNA-N,acetonitrile,230.263,261.286,-29108.2,-1478.9842499999904,301.117,8.59656,11.763,10.086,-1.49292,-1.10638,-0.62401,0.6442,-1.49292,-0.939116416
BBEAQIROQSPTKN-UHFFFAOYNA-N,ethanol,202.255,222.477,-22121.262,-13.15301492537401,301.117,8.59656,9.035,11.147,0.0,-1.66909,-0.1787,0.16846,0.0,-1.270025714
MWPLVEDNUUSJAV-UHFFFAOYNA-N,"2,2,4-trimethylpentane",178.233,211.323,-21520.69,718.8284571428558,301.117,8.59656,9.462,12.287,0.0,-1.55241,-0.19261,0.16125,0.0,-2.15490196
KZTYYGOKRVBIMI-UHFFFAOYNA-N,2-methyl-2-butanol,218.27,232.07,-25975.376000000004,232.40791666666337,301.117,8.59656,9.832,13.159,-1.97073,-2.09624,-0.9854,2.4477,0.4769700000000001,-1.297053812
QIGBRXMKCJKVMJ-UHFFFAOYNA-N,methanol,110.112,138.926,-19081.414,148.33966666666674,301.117,8.59656,10.159,11.711,-1.0113599999999998,-0.4346799999999999,-0.50569,0.35685,-1.0113599999999998,0.422922663
KZTYYGOKRVBIMI-UHFFFAOYNA-N,cyclohexane,218.27,232.168,-26463.516000000003,-255.73208333333605,249.8,6.74782,10.1,14.239,-1.91557,-2.08337,-0.9578,2.42287,0.5073000000000001,-2.096367484
CMWTZPSULFXXJA-GTNTULIANA-N,1-hexanol,230.263,261.872,-27909.774,-223.8297714285727,277.66200000000003,4.79315,9.36,11.595,-1.48704,-1.10137,-0.59962,0.64134,-1.48704,-0.882728704
WLJVXDMOQOGPHL-BGGKNDAXNA-N,chloroform,136.15,171.565,-22042.736,-1003.6822222222218,168.933,2.33493,11.374,9.058,-1.07944,-0.4898699999999999,-0.57922,0.66883,-1.07944,0.586137025
YRHRIQCWCFGUEQ-UHFFFAOYNA-N,1-pentanol,212.266,221.762,-24724.682,-1531.591178571427,168.933,2.33493,9.047,11.848,-0.59057,-0.79571,-0.59057,0.59098,-0.6022500000000001,-1.845073455
ALYNCZNDIQEVRV-BGGKNDAXNA-N,methanol,137.138,165.658,-21864.806,-963.870275862064,168.933,2.33493,9.832,11.964,-1.12432,0.02241,-0.63356,0.686,-1.62231,0.142669769
NIHNNTQXNPWCJQ-UHFFFAOYNA-N,1-heptanol,166.222,200.685,-21619.622000000003,-217.4910000000018,168.933,2.33493,9.85,11.721,0.0,-1.65807,-0.32582,0.18381,0.0,-0.607355689