InChIkey,Solvent,MW,SASA,G_sol,DeltaG_sol,Volume,sol_dip,LsoluHsolv,LsolvHsolu,O_charges,C_charges,Most_neg,Most_pos,Het_charges,LogS
IIUZTXTZRGLYTI-LKUJNTHKNA-N,acetone,354.787,339.09,-35441.090000000004,-138.36000000000786,394.503,8.36294,9.214,10.165,-2.62563,-0.7230299999999997,-0.64304,0.63198,-2.66014,-0.936650065
IJFXRHURBJZNAO-BGGKNDAXNA-N,methanol,138.123,160.753,-21859.324,-716.0806666666722,155.197,3.91523,9.4,12.398,-1.57167,0.10936,-0.60183,0.65256,-1.57167,0.315402012
QYSPLQLAKJAUJT-HCKMINDGNA-N,methanol,331.345,312.126,-31766.948,-1032.801999999996,349.813,7.62265,9.038,12.124,-2.99389,-0.68464,-0.97432,2.50896,-1.97686,-3.191911324
FDDDEECHVMSUSB-FSHFIPFONA-N,water,172.201,184.348,-23414.582,-1004.0424444444508,349.813,7.62265,11.573,13.128,-1.9914,-0.9644,-1.00252,2.55961,-0.8428499999999999,-1.387500002
QECIGCMPORCORE-UHFFFAOYNA-N,dichloromethane,206.243,230.225,-24804.369999999995,-907.5347999999976,349.813,7.62265,9.462,9.114,-0.57149,-1.04378,-0.57149,0.44863,-0.57149,-0.47244520343749996
YVUQSNJEYSNKRX-VJSLDGLSNA-N,1-propanol,461.553,466.039,-39514.454000000005,-454.4511249999996,349.813,7.62265,9.972,11.391000000000002,-0.6499,-2.58054,-0.6499,0.63406,-2.10848,-1.7018281
IKGXIBQEEMLURG-NVPNHPEKNA-N,1-butanol,610.524,523.267,-49561.94799999999,51.00971428572666,349.813,7.62265,9.038,12.559,-7.91229,0.88718,-0.66267,0.62262,-7.91229,-1.879719908
QGJZLNKBHJESQX-WRDJYESVNA-N,1-propanol,456.707,429.433,-40905.32,56.48683333333611,349.813,7.62265,10.726,12.519000000000002,-1.72859,-5.80063,-0.64211,0.63008,-1.72859,-1.631861396
AQIXAKUUQRKLND-UHFFFAOYSA-N,acetone,252.337,272.151,-29668.916,-1264.3810000000012,302.026,12.1514,10.374,9.709,0.0,-0.69501,-0.55512,0.46498,-2.5556,-1.958607315
OLOOJGVNMBJLLR-UHFFFAOYNA-N,water,270.284,296.982,-30890.725999999995,-1128.171999999995,314.287,10.0973,10.371,12.989999999999998,-1.59376,-0.94958,-0.57204,0.7103,-1.59376,-4.229036117
ZWLPBLYKEWSWPD-BGGKNDAXNA-N,sulfolane,136.15,166.671,-22104.511999999995,-1096.4292499999938,314.287,10.0973,10.049,10.57,-1.10447,-0.4932000000000001,-0.62993,0.68517,-1.10447,0.156100217
GPSDUZXPYCFOSQ-BGGKNDAXNA-N,3-methyl-1-butanol,136.15,169.888,-21909.938,-716.3530857142869,164.91400000000002,3.4202,9.316,12.804,-1.09066,-0.49016,-0.608,0.65828,-1.09066,0.169724777
YVUQSNJEYSNKRX-VJSLDGLSNA-N,1-butanol,461.553,466.808,-39388.406,-328.4031249999898,164.91400000000002,3.4202,9.938,11.786,-0.64929,-2.6800200000000003,-0.64929,0.63281,-2.08502,-1.57099535
ZFXYFBGIUFBOJW-FZOZFQFYNA-N,acetonitrile,180.166,189.594,-23708.022,-940.5858461538484,164.91400000000002,3.4202,12.029,10.877,-1.2160799999999998,0.71757,-0.60898,0.68784,-2.35769,-1.981979636
ONUFSRWQCKNVSL-UHFFFAOYNA-N,dichloromethane,334.116,260.826,-29234.176,185.1577999999972,164.91400000000002,3.4202,9.455,10.918,0.0,0.8044,-0.09571,0.16853,-0.8044,0.48563961
OIGXDZJSRMPECU-UHFFFAOYNA-N,water,272.26,287.005,-30016.194,548.225333333332,164.91400000000002,3.4202,10.245,13.326999999999998,-1.94483,-1.1022,-0.59327,0.87157,-1.2493,-1.677780705
DWMREKMVXIFPFM-RWWBHRBBNA-N,1-heptanol,351.394,321.803,-33410.916,-1377.8780833333294,164.91400000000002,3.4202,8.835,11.459,-2.96632,-0.91029,-0.97765,2.49072,-1.7458,-2.79650993
DMIYKWPEFRFTPY-UHFFFAOYNA-N,chloroform,175.014,175.808,-22075.814,-1058.796999999999,178.228,5.27557,10.139,9.264,-0.50937,-0.04099,-0.50937,0.45163,-0.64838,0.532754379
BBEAQIROQSPTKN-UHFFFAOYNA-N,dimethylacetamide,202.255,222.477,-22120.762,-12.65301492537401,178.228,5.27557,8.753,9.419,0.0,-1.67335,-0.1788,0.16889,0.0,-0.861697302
BONIIQYTWOPUQI-BGGKNDAXNA-N,acetonitrile,192.131,189.988,-23384.304,-620.2939999999908,178.228,5.27557,10.629,12.389,-1.99745,0.69784,-0.52293,0.84905,-1.62377,-0.979260822
SKZKKFZAGNVIMN-FSHFIPFONA-N,1-butanol,137.138,161.154,-21239.194000000003,-739.9821176470577,178.228,5.27557,9.561,12.493,-1.193,0.0581099999999999,-0.68491,0.64159,-1.7119,-0.482804102
QYSPLQLAKJAUJT-HCKMINDGNA-N,ethanol,331.345,311.63,-31216.506,-482.3600000000006,178.228,5.27557,9.053,12.233,-2.98901,-0.6866,-0.97285,2.50608,-1.97377,-2.513516133
SKZKKFZAGNVIMN-FSHFIPFONA-N,1-tert-butoxy-2-propanol,137.138,161.123,-21112.272,-613.0601176470518,156.659,6.88748,9.229,11.549,-1.17625,0.0650399999999999,-0.68018,0.64693,-1.7231,-0.162724152
MWPLVEDNUUSJAV-UHFFFAOYNA-N,n-methyl-2-pyrrolidone,178.233,211.323,-21532.554,706.9644571428616,221.709,0.00219936,7.885,9.417,0.0,-1.63659,-0.19776,0.17028,0.0,-0.73207301
IQPNAANSBPBGFQ-UHFFFAOYNA-N,acetone,286.24,282.353,-29667.224,-145.72175000000425,221.709,0.00219936,8.941,9.944,-2.84092,0.12649,-0.64521,0.68479,-2.84092,-1.683319377
VFVHWCKUHAEDMY-UHFFFAOYNA-N,acetonitrile,185.566,187.804,-23092.668,-1297.6117142857147,187.372,7.49244,10.886,11.872,-1.57316,0.0049499999999999,-0.55164,0.87168,-0.7486,0.356328038
WURBFLDFSFBTLW-UHFFFAOYNA-N,hexadecane,210.232,240.01,-25981.096,-970.4502040816296,187.372,7.49244,9.434,14.011,-0.92904,-0.68469,-0.46464,0.42057,-0.92904,-1.389999998
MHKKFFHWMKEBDW-UHFFFAOYNA-N,acetonitrile,228.201,229.56,-28346.918000000005,-381.038857142863,260.137,6.061450000000001,12.087,12.3,-2.9903,0.61522,-0.57876,0.67557,-2.9903,-1.460087034
CDPKJZJVTHSESZ-KZFATGLANA-N,toluene,170.595,190.74,-23135.246,-1275.9343333333345,190.975,3.28433,8.953,10.076,-1.04827,-0.29918,-0.55151,0.65349,-1.14397,-0.050609993
REYJJPSVUYRZGE-UHFFFAOYNA-N,hexane,269.513,389.936,-36550.98,-323.7109999999957,422.503,2.28142,14.589,13.939,0.0,-4.82087,-0.52786,0.21105,-0.52786,-0.886056648
CWRYPZZKDGJXCA-UHFFFAOYNA-N,dichloroethane,154.211,187.008,-20975.582,386.34679999999935,422.503,2.28142,10.304,8.732,0.0,-1.64046,-0.29873,0.16982,0.0,0.237480515
DWQOTEPNRWVUDA-HCKMINDGNA-N,methanol,242.234,261.15,-28514.178000000004,-1290.905999999999,276.13300000000004,4.26266,9.28,12.149,-1.56628,-0.38258,-0.60717,0.67363,-1.7904,-1.237477597
XMTQQYYKAHVGBJ-XWKXFZRBNA-N,2-methyl-2-propanol,233.097,243.542,-26865.546,-1880.854479999998,276.13300000000004,4.26266,9.827,12.22,-0.66093,-0.26289,-0.66093,0.68201,-1.63139,-1.155519165
AAOVKJBEBIDNHE-UHFFFAOYNA-N,1-octanol,284.745,289.395,-29190.814,-639.5963999999985,323.693,5.70941,9.426,12.158,-0.60938,-0.9323,-0.60938,0.59912,-1.38218,-1.01
BOCJQSFSGAZAPQ-UHFFFAOYNA-N,chlorocyclohexane,242.661,236.9,-25913.980000000003,-742.5106530612284,323.693,5.70941,8.287,11.252,-1.05386,-0.14012,-0.53169,0.56275,-1.11627,-1.393143063
RXKNNAKAVAHBNK-UHFFFAOYNA-N,tert-butylcyclohexane,140.098,154.652,-20083.778,1444.4256842105317,147.277,1.33155,8.362,14.246,-1.4860600000000002,-0.81206,-0.53239,0.84901,-0.0247,-3.462180905
NOCJXYPHIIZEHN-LBOYIXSDNA-N,acetone,399.396,386.056,-36298.67,-668.6564999999973,443.071,10.675,9.024,9.486,-1.72774,-0.5252,-0.634,0.74214,-2.86539,-1.057474294
BOCJQSFSGAZAPQ-UHFFFAOYNA-N,1-decanol,242.661,236.9,-25922.098,-750.6286530612269,443.071,10.675,8.329,12.985,-1.05927,-0.1364,-0.53416,0.56431,-1.1227,-1.941533167
CKAPSXZOOQJIBF-UHFFFAOYNA-N,nonane,284.784,220.81,-23578.556,1945.4418571428607,239.629,0.0010601,9.291,14.001,0.0,0.02408,-0.00407,0.00412,-0.0240699999999999,-1.642255675
GFLHGSIWKATBCA-UHFFFAOYNA-N,ethanol,304.398,240.729,-27331.136,-1764.721428571429,239.629,0.0010601,9.578,12.752,-0.41301,-0.36958,-0.41301,0.20639,-0.74685,-0.686103541
WJUFSDZVCOTFON-UHFFFAOYNA-N,acetone,166.176,199.823,-24973.668,-1975.1198333333373,239.629,0.0010601,9.242,9.636,-1.33444,-0.32338,-0.57748,0.45048,-1.33444,0.481299273
DKYWVDODHFEZIM-GPQMBLKYNA-N,ethanol,254.285,285.656,-29716.556,-886.6442222222104,239.629,0.0010601,9.437,12.94,-1.67725,-0.89989,-0.61778,0.64334,-1.67725,0.061475803
WURBFLDFSFBTLW-UHFFFAOYNA-N,dmso,210.232,239.85,-25848.488000000005,-837.8422040816367,239.629,0.0010601,6.715,11.032,-1.00715,-0.67408,-0.50359,0.44774,-1.00715,-0.507855889
VAOCPAMSLUNLGC-UHFFFAOYNA-N,1-octanol,171.155,187.143,-23286.958,10.631999999997788,239.629,0.0010601,8.92,13.09,-1.59883,-0.68074,-0.58901,0.91713,-1.14861,-1.522878745
NIHNNTQXNPWCJQ-UHFFFAOYNA-N,2-methyl-1-pentanol,166.222,200.685,-21642.404,-240.2729999999974,239.629,0.0010601,9.695,11.816,0.0,-1.65928,-0.32591,0.18394,0.0,-0.804842244
VYWYYJYRVSBHJQ-KZFATGLANA-N,1-propanol,212.118,207.67,-25503.126,-1597.365259259259,209.068,4.414429999999999,8.173000000000002,14.312,-3.0199,0.28586,-0.57805,0.87535,-1.27,-0.327801457
LULAYUGMBFYYEX-BGGKNDAXNA-N,2-propanol,156.568,170.48,-22115.816,-929.3148571428536,166.217,4.1136,9.444,12.982,-1.07897,0.0720499999999999,-0.60129,0.66311,-1.16614,0.060867133
ALYNCZNDIQEVRV-BGGKNDAXNA-N,2-propanol,137.138,166.019,-21691.39,-790.4542758620664,166.217,4.1136,9.88,12.189,-1.12152,0.0232199999999999,-0.62977,0.68474,-1.61904,-0.317419715
HYZJCKYKOHLVJF-FZOZFQFYNA-N,2-methyl-2-propanol,118.138,147.573,-19892.626,-419.0948888888888,166.217,4.1136,9.985,12.349,0.0,-0.53476,-0.42661,0.30733,-0.64703,0.107888025
UFWIBTONFRDIAS-UHFFFAOYNA-N,hexadecane,128.173,165.632,-19436.228000000003,160.55503030302862,165.04399999999998,0.00029584,10.009,12.667,0.0,-1.22597,-0.16914,0.15523,0.0,-0.101081011
QIQXTHQIDYTFRH-LILDFLRNNA-N,ethanol,284.481,387.97,-37492.786,-346.5008749999979,165.04399999999998,0.00029584,10.861,13.662,-1.12207,-4.08344,-0.62013,0.6724,-1.12207,-0.887092201
GJCOSYZMQJWQCA-UHFFFAOYNA-N,undecane,182.221,210.426,-22603.316,-594.935512195123,165.04399999999998,0.00029584,10.614999999999998,12.802,-0.34796,-1.27246,-0.34796,0.26181,-0.34796,-0.638272164
DWCLXOREGBLXTD-UHFFFAOYNA-N,thf,176.172,185.736,-24529.94,-187.2987142857164,210.355,9.16835,8.133,13.904,-1.91277,-1.85974,-0.52088,0.73214,-0.44872,-1.18956706
WPYMKLBDIGXBTP-FZOZFQFYNA-N,1-octanol,122.123,151.267,-20773.7,-1042.7006499999989,210.355,9.16835,9.534,12.977,-1.08957,-0.11008,-0.60561,0.66228,-1.08957,-0.054444492
PEQHIRFAKIASBK-UHFFFAOYNA-N,dmso,320.433,334.609,-32134.522,-585.1817999999912,402.113,0.0079157699999999,8.375,10.366,0.0,-3.17762,-0.18777,0.16243,0.0,-3.200000237
WXTMDXOMEHJXQO-KZFATGLANA-N,methanol,154.122,166.543,-22676.93,-391.54885714285774,162.582,3.6996,9.234,12.033,-2.06304,0.39381,-0.61878,0.68182,-2.06304,0.426673888
BOCJQSFSGAZAPQ-UHFFFAOYNA-N,3-methyl-1-butanol,242.661,236.9,-25950.818000000003,-779.3486530612281,256.832,1.86128,8.115,13.057,-1.07566,-0.12504,-0.54161,0.56902,-1.14224,-2.256803526
PJANXHGTPQOBST-VAWYXSNFNA-N,2-pentanol,180.249,233.278,-24232.27,-798.9037777777776,235.521,0.00544341,9.697,11.769,0.0,-1.92075,-0.19039,0.16273,0.0,-1.313223001
QQVIHTHCMHWDBS-FLKJISBTNA-N,methanol,166.133,182.641,-23920.286,-1240.5178461538453,235.521,0.00544341,9.265,13.365,-2.17197,0.7209399999999999,-0.6074,0.67546,-2.17197,-0.986734905
YGSDEFSMJLZEOE-BGGKNDAXNA-N,1-octanol,138.123,159.647,-22103.41,-956.5973999999989,154.915,4.74486,9.557,12.525,-1.57052,0.1489299999999999,-0.59913,0.69741,-1.57052,0.139750989
JYGXADMDTFJGBT-VWUMJDOONA-N,ethanol,362.465,344.579,-36136.398,-232.0894000000044,154.915,4.74486,9.86,13.088,-2.89567,-2.5163,-0.64883,0.6445,-2.89567,-1.391998432
YLQWCDOCJODRMT-UHFFFAOYNA-N,tert-butylcyclohexane,180.206,204.757,-22237.382,-420.0982790697672,154.915,4.74486,9.021,13.354,-0.49295,-0.79834,-0.49295,0.56789,-0.49295,-0.920818754
ZQBAKBUEJOMQEX-UHFFFAOYNA-N,2-propanol,214.22,238.901,-26369.052000000003,-368.0897500000028,154.915,4.74486,9.534,12.718,-1.47925,-0.45917,-0.59314,0.70494,-1.47925,0.071770291
BMLIZLVNXIYGCK-WXRBYKJCNA-N,1-octanol,198.652,225.653,-25303.646,-1407.8885517241324,229.924,7.172809999999999,10.017,11.793,-0.66219,-0.42634,-0.66219,0.68218,-1.59713,-1.039329827
VHHHONWQHHHLTI-UHFFFAOYNA-N,chlorobenzene,236.74,176.295,-21907.588000000003,-47.34530434782937,229.924,7.172809999999999,7.790999999999999,11.502,0.0,0.28946,-0.04833,0.14474,-0.28946,0.278218532
SQNZJJAZBFDUTD-UHFFFAOYNA-N,1-octanol,134.221,190.799,-22002.33,466.3205806451661,194.948,0.0029208299999999,10.714,11.678,0.0,-2.34081,-0.48989,0.17043,0.0,-0.1200938
UFWIBTONFRDIAS-UHFFFAOYNA-N,n-methyl-2-pyrrolidone,128.173,165.632,-19450.614,146.16903030303,165.049,0.0026319,8.538,9.991,0.0,-1.28622,-0.17629,0.16297,0.0,0.550634453
GKODDAXOSGGARJ-KZFATGLANA-N,dichloromethane,165.123,173.269,-22280.378000000004,-1014.5532000000094,171.16600000000005,7.03125,9.062,9.761,-0.9283,0.57519,-0.50075,0.47222,-1.47519,-0.600875775
RXKNNAKAVAHBNK-UHFFFAOYNA-N,1-pentanol,140.098,154.652,-20194.978,1333.2256842105307,171.16600000000005,7.03125,8.355,13.017,-1.61551,-0.73627,-0.60776,0.8727,-0.1316799999999999,-1.565431096
POULHZVOKOAJMA-NDKGDYFDNA-N,1-hexanol,200.32,284.381,-29674.93800000001,-693.2380000000085,171.16600000000005,7.03125,10.56,13.867,-1.10803,-2.53137,-0.62065,0.66415,-1.10803,0.308998126
AFPHTEQTJZKQAQ-BGGKNDAXNA-N,1-propanol,167.121,179.6,-23043.794,-1226.9262222222242,171.16600000000005,7.03125,8.567,13.613,-2.09344,0.1063299999999999,-0.59374,0.86444,-1.229,0.263411052
ILUJQPXNXACGAN-BGGKNDAXNA-N,2-propoxyethanol,152.149,179.052,-24685.376000000004,-1801.7037837837925,171.16600000000005,7.03125,9.195,11.326,-1.46577,-0.0772399999999999,-0.61319,0.70115,-1.46577,-0.042605976
RJKGJBPXVHTNJL-UHFFFAOYNA-N,cyclopentanol,173.171,192.122,-22429.236,-278.72087804878174,197.443,7.05978,8.706,12.403,-1.0127199999999998,-1.06535,-0.50749,0.85828,-0.1544399999999999,-0.170241322
UMGDCJDMYOKAJW-UBUOBULFNA-N,1-propanol,76.116,104.406,-16919.218,259.0524000000005,197.443,7.05978,10.288,12.491,0.0,0.50854,-0.80882,0.50854,-1.70588,-0.677884857
REYJJPSVUYRZGE-UHFFFAOYNA-N,ethanol,269.513,388.176,-36296.152,-68.88300000000163,422.018,2.42448,14.043,12.666,0.0,-4.85607,-0.56725,0.22564,-0.56725,0.247973266
VRPJIFMKZZEXLR-DEPUQRHONA-N,dmso,175.184,211.48,-26706.078,-323.8586153846154,212.289,4.2436,8.276,11.483,-2.22944,-0.04284,-0.65591,0.74943,-2.68965,0.679427897
NIHNNTQXNPWCJQ-UHFFFAOYNA-N,1-decanol,166.222,200.685,-21519.352000000003,-117.22100000000135,212.289,4.2436,9.894,11.862,0.0,-1.65056,-0.3254,0.18301,0.0,-0.607287012
YNPNZTXNASCQKK-UHFFFAOYNA-N,benzene,178.233,209.472,-22948.562,-566.9821666666685,212.289,4.2436,8.832,9.025,0.0,-1.55456,-0.16944,0.15914,0.0,0.281994326
BOCJQSFSGAZAPQ-UHFFFAOYNA-N,toluene,242.661,236.9,-25846.53,-675.0606530612276,212.289,4.2436,7.284999999999999,10.466,-0.99177,-0.18158,-0.50291,0.54438,-1.04292,-0.856380517
RCINICONZNJXQF-GXKQXQCDNA-N,ethanol,853.918,681.151,-67350.60199999998,-2884.994999999988,1000.95,15.661,9.499,12.893,-7.39704,-1.80236,-0.65199,0.70632,-7.85804,-1.337242168
GVEPBJHOBDJJJI-UHFFFAOYNA-N,cyclooctane,202.255,227.244,-22961.622,-397.7022040816264,243.06,0.256295,9.158,13.079,0.0,-1.55799,-0.15731,0.15892,0.0,-0.674660834
BOCJQSFSGAZAPQ-UHFFFAOYNA-N,2-methyl-1-propanol,242.661,236.9,-25958.050000000003,-786.5806530612281,243.06,0.256295,8.17,13.006,-1.07946,-0.1224,-0.54333,0.5701,-1.14678,-2.3592529
VYWYYJYRVSBHJQ-KZFATGLANA-N,1-octanol,212.118,207.639,-25215.97,-1310.20925925926,208.185,4.34716,8.184,14.373,-2.99523,0.2718399999999999,-0.57048,0.87099,-1.25379,-0.681406369
CDVNZMKTJIBBBV-WXRBYKJCNA-N,3-methyl-1-butanol,226.145,221.543,-26335.402,-1252.5573333333268,230.612,5.7809,8.173,14.2,-2.98788,-0.16331,-0.57551,0.87773,-1.2375699999999998,-0.959367533
WJFKNYWRSNBZNX-UHFFFAOYNA-N,2-pentanol,199.27,216.841,-24095.27,-848.6499999999978,230.612,5.7809,9.93,10.92,0.0,-1.22168,-0.40028,0.30178,-0.43403,-1.098775721
PJANXHGTPQOBST-VAWYXSNFNA-N,chlorobenzene,180.249,234.07,-24938.904,-1505.5377777777794,238.022,0.00594659,9.137,8.979000000000001,0.0,-1.90494,-0.1932,0.16599,0.0,-0.158986698
WJFKNYWRSNBZNX-UHFFFAOYNA-N,octane,199.27,217.26,-24338.632,-1092.0120000000024,238.022,0.00594659,10.613,11.967,0.0,-1.16965,-0.39594,0.27945,-0.39235,-2.272086337
FJKROLUGYXJWQN-BGGKNDAXNA-N,chloroform,138.123,161.02,-21656.148,-818.2547142857075,238.022,0.00594659,10.558,9.132,-1.55719,0.12978,-0.59654,0.67315,-1.55719,-2.698970004
ALYNCZNDIQEVRV-BGGKNDAXNA-N,1-decanol,137.138,165.992,-21763.376,-862.4402758620636,238.022,0.00594659,9.754,12.114,-1.1102,0.02487,-0.61816,0.67976,-1.60647,-1.036212173
RZVAJINKPMORJF-BGGKNDAXNA-N,thf,151.165,185.26,-22962.946000000004,-43.75668421052978,238.022,0.00594659,9.226,11.183,-1.14517,-0.42981,-0.64638,0.66194,-1.5850499999999998,-0.893182541
XRHGYUZYPHTUJZ-BGGKNDAXNA-N,2-butoxyethanol,156.568,170.601,-22547.216,-1146.355333333333,167.556,1.97426,8.953999999999999,11.953,-1.0782500000000002,0.0701899999999999,-0.5973,0.6654,-1.16573,-0.132936505
YGSDEFSMJLZEOE-BGGKNDAXNA-N,2-methyl-2-propanol,138.123,157.307,-21600.874,-454.0614000000023,152.038,3.7059,9.466,12.821,-1.58268,0.15083,-0.62527,0.69328,-1.58268,0.367914739
CMWTZPSULFXXJA-GTNTULIANA-N,2-butanol,230.263,260.544,-29452.628000000004,-1766.6837714285757,152.038,3.7059,9.374,11.794,-1.48551,-1.10291,-0.61899,0.64193,-1.48551,-0.821023053
YNPNZTXNASCQKK-UHFFFAOYNA-N,heptane,178.233,209.472,-23082.464,-700.8841666666667,152.038,3.7059,10.206,12.684,0.0,-1.54017,-0.16841,0.1576,0.0,-0.580044252
GVIJJXMXTUZIOD-UHFFFAOYNA-N,hexadecane,216.315,223.495,-23372.25,-373.61231578947263,239.576,1.67916,10.149,12.461,0.0,-1.27738,-0.13938,0.16844,-0.03392,-1.522878745
ZWLPBLYKEWSWPD-BGGKNDAXNA-N,2-methyl-1-butanol,136.15,166.847,-22290.008,-1281.9252500000002,165.136,3.5901300000000003,9.504,12.723,-1.09637,-0.4915999999999999,-0.62073,0.68103,-1.09637,0.096910013
MWPLVEDNUUSJAV-UHFFFAOYNA-N,2-methyl-1-pentanol,178.233,211.323,-21533.158,706.3604571428586,221.709,0.00236149,8.763,11.102,0.0,-1.63657,-0.19775,0.17028,0.0,-2.113550732
IWYDHOAUDWTVEP-KZFATGLANA-N,water,152.149,178.116,-23051.126,-917.5373333333335,177.954,0.928287,11.493,13.946000000000002,-1.60472,-0.1278999999999999,-0.56566,0.5824,-1.60472,0.050766311
GVEPBJHOBDJJJI-UHFFFAOYNA-N,methylcyclohexane,202.255,227.244,-22961.324,-397.40420408162754,243.072,0.256046,9.374,12.928,0.0,-1.55797,-0.15731,0.15892,0.0,-0.765687374
BGRJTUBHPOOWDU-QDYITYEQNA-N,dmf,341.424,351.076,-34499.684,-321.2214285714217,397.24,10.3136,8.685,9.946,-3.04279,-1.74698,-0.99314,2.55286,-2.20038,-0.199386609
KGCNHWXDPDPSBV-UHFFFAOYNA-N,acetone,171.583,186.27,-22628.236,-2017.3218461538447,397.24,10.3136,8.513,11.126,-1.03736,-0.80039,-0.51888,0.85723,-0.33618,0.505273858
WJUFSDZVCOTFON-UHFFFAOYNA-N,methanol,166.176,199.823,-25005.22,-2006.6718333333336,397.24,10.3136,9.499,11.803,-1.34135,-0.32241,-0.58104,0.45226,-1.34135,0.768638101
XMTQQYYKAHVGBJ-XWKXFZRBNA-N,"1,4-dioxane",233.097,243.064,-27320.011999999995,-2335.320479999995,397.24,10.3136,9.121,10.799,-0.60041,-0.2452299999999999,-0.60041,0.67334,-1.57124,-1.093157604
WURBFLDFSFBTLW-UHFFFAOYNA-N,hexane,210.232,240.004,-26461.616,-1450.9702040816337,397.24,10.3136,9.465,14.419,-0.94404,-0.68378,-0.47202,0.42541,-0.94404,-1.360000002
GVIJJXMXTUZIOD-UHFFFAOYNA-N,cyclopentanol,216.315,223.654,-23782.418,-783.7803157894741,397.24,10.3136,9.683,11.783,0.0,-1.29324,-0.14239,0.17671,-0.09146,-1.323978879
RJKGJBPXVHTNJL-UHFFFAOYNA-N,hexadecane,173.171,192.125,-22417.848,-267.3328780487791,397.24,10.3136,9.082,13.354,-0.95386,-1.03803,-0.47837,0.83042,-0.12344,-0.860517892
QIQXTHQIDYTFRH-LILDFLRNNA-N,methanol,284.481,378.691,-37402.426,-256.1408749999973,397.24,10.3136,10.83,13.447,-1.12303,-4.08084,-0.62032,0.67357,-1.12303,-1.290732376
ZUOUZKKEUPVFJK-UHFFFAOYNA-N,3-methyl-1-butanol,154.211,198.05,-21601.926,-783.2968148148138,201.225,0.00144132,9.927,12.304,0.0,-1.59648,-0.17915,0.16248,0.0,-0.29404253
YGSDEFSMJLZEOE-BGGKNDAXNA-N,acetonitrile,138.123,160.336,-21922.774,-775.9614000000001,201.225,0.00144132,11.994,11.037,-1.58557,0.1501199999999999,-0.62255,0.70755,-1.58557,-0.195924837
KGCNHWXDPDPSBV-UHFFFAOYNA-N,1-propanol,171.583,186.257,-22671.162,-2060.247846153841,201.225,0.00144132,8.625,13.305,-1.03713,-0.80043,-0.51863,0.85718,-0.3358899999999999,-0.591879183
KZTYYGOKRVBIMI-UHFFFAOYNA-N,2-ethoxyethanol,218.27,232.178,-26223.86,-16.076083333329734,249.874,7.49666,9.231,12.211,-1.98938,-2.10007,-0.99477,2.45502,0.4656400000000001,-0.520730407
JJVNINGBHGBWJH-UHFFFAOYNA-N,thf,152.149,178.316,-22985.076,-1079.4576000000015,249.874,7.49666,8.453999999999999,11.51,-1.42915,-0.0814699999999999,-0.56805,0.46758,-1.42915,0.729974286