InChIkey,Solvent,MW,SASA,G_sol,DeltaG_sol,Volume,sol_dip,LsoluHsolv,LsolvHsolu,O_charges,C_charges,Most_neg,Most_pos,Het_charges,LogS
YSSSPARMOAYJTE-UHFFFAOYNA-N,dmso,360.406,361.549,-35664.504,-650.1030588235299,189.242,0.300576,8.174,10.254,-2.62971,-1.10845,-0.48293,0.19698,-2.62971,-1.318758763
YGSDEFSMJLZEOE-BGGKNDAXNA-N,hexane,138.123,157.307,-21224.92,-78.10740000000078,152.038,3.03027,10.072,14.044,-1.52354,0.14366,-0.59118,0.67504,-1.52354,-2.397940009
ZQBAKBUEJOMQEX-UHFFFAOYNA-N,methanol,214.22,238.71,-27073.342000000004,-1072.3797500000037,246.912,3.69796,9.485,12.503,-1.48296,-0.46013,-0.59558,0.70632,-1.48296,0.237907059
WBYWAXJHAXSJNI-KZFATGLANA-N,"1,2-dichloroethane",148.161,181.074,-22771.536000000004,-512.0003750000069,246.912,3.69796,10.053,10.169,-1.09247,-0.43874,-0.59531,0.6834,-1.09247,-0.441291429
DFXQXFGFOLXAPO-KZFATGLANA-N,2-isopropoxyethanol,201.566,197.247,-24563.800000000003,-1296.9186470588284,246.912,3.69796,8.219,12.451,-2.0013300000000003,0.20902,-0.57889,0.86045,-1.16766,-0.232214676
GJCOSYZMQJWQCA-UHFFFAOYNA-N,decane,182.221,210.426,-22577.82,-569.4395121951238,246.912,3.69796,10.696,12.863,-0.34796,-1.27247,-0.34796,0.26182,-0.34796,-0.619788758
NSPMIYGKQJPBQR-UHFFFAOYSA-N,water,69.0658,95.9042,-16453.094,-358.8768000000018,80.44590000000001,6.50371,11.774,14.685,0.0,-0.32433,-0.25622,0.32416,-0.43936,1.136045554
KDYFGRWQOYBRFD-AOTPWWKUNA-N,1-propanol,118.089,144.252,-21468.008,-673.9565714285782,80.44590000000001,6.50371,10.349,14.517,-2.17852,0.60921,-0.6056,0.67268,-2.17852,-0.461135602
BMLIZLVNXIYGCK-WXRBYKJCNA-N,"1,2-dichloroethane",198.652,225.818,-25301.634,-1405.8765517241372,228.335,7.18067,10.415,9.41,-0.66226,-0.4261400000000001,-0.66226,0.68207,-1.59717,-1.069999999
YRHRIQCWCFGUEQ-UHFFFAOYNA-N,2-butanol,212.266,221.762,-24784.748,-1591.657178571426,236.332,3.16868,9.07,12.052,-0.59155,-0.79557,-0.59155,0.59144,-0.6035200000000001,-1.967073072
WJUFSDZVCOTFON-UHFFFAOYNA-N,dichloromethane,166.176,200.114,-24842.28,-1843.731833333335,200.163,3.48975,9.951,9.105,-1.3119,-0.32692,-0.56585,0.44465,-1.3119,0.782472624
IUWVALYLNVXWKX-UHFFFAOYNA-N,acetonitrile,193.245,241.942,-27558.36,-1347.0110000000022,200.163,3.48975,12.188,10.469,-1.05913,-1.01803,-0.6243,0.69207,-1.55987,0.486146997
FZERHIULMFGESH-BGGKNDAXNA-N,toluene,135.165,175.035,-23666.136,-1559.4398333333374,169.704,4.48608,9.196,9.532,-0.58066,-0.66237,-0.62416,0.65227,-1.04716,-1.204010737
ISAOCJYIOMOJEB-UHFFFAOYNA-N,toluene,212.248,241.0,-26832.294000000005,-1160.5213157894796,169.704,4.48608,8.263,10.276,-1.0505,-1.03533,-0.54091,0.47971,-1.0505,-1.255544717
GPSDUZXPYCFOSQ-BGGKNDAXNA-N,hexane,136.15,170.323,-21798.5,-604.9150857142849,164.935,3.44836,10.25,14.19,-1.0385,-0.48339,-0.55648,0.63264,-1.0385,-1.036552524
HCUARRIEZVDMPT-WXRBYKJCNA-N,dichloromethane,161.16,184.324,-23043.122000000003,-803.2860000000001,182.922,4.01558,9.842,9.054,-1.07395,-0.26446,-0.58304,0.67425,-1.23674,-1.73520663
LULAYUGMBFYYEX-BGGKNDAXNA-N,1-octanol,156.568,170.48,-22063.626,-877.124857142855,182.922,4.01558,9.292,12.794,-1.07218,0.0689199999999999,-0.59382,0.65955,-1.15763,-0.143843761
UVEWQKMPXAHFST-UHFFFAOYNA-N,toluene,181.237,229.998,-24803.868,-1440.937250000003,182.922,4.01558,8.729999999999999,9.693,0.0,-1.40788,-0.32647,0.17192,-0.32647,0.551205944
GVEPBJHOBDJJJI-UHFFFAOYNA-N,"1,4-dioxane",202.255,227.244,-22961.218,-397.2982040816278,182.922,4.01558,8.392,10.415,0.0,-1.5652,-0.15721,0.15963,0.0,0.187520721
PEQHIRFAKIASBK-UHFFFAOYNA-N,dimethylacetamide,320.433,334.302,-32361.270000000004,-811.9297999999981,401.757,0.00248843,10.183,10.583,0.0,-3.1971,-0.18878,0.1631,0.0,-2.439999946
JZFDKGFWNSQAHU-GPQMBLKYNA-N,acetone,254.285,281.277,-29822.48,-415.7967999999892,309.004,6.098789999999999,9.139,10.578,-1.63734,-0.8946799999999999,-0.58748,0.6564,-1.63734,-1.195446256
ALYNCZNDIQEVRV-BGGKNDAXNA-N,"1,4-dioxane",137.138,166.019,-22566.352000000003,-1665.4162758620696,309.004,6.098789999999999,9.125,10.911,-1.07009,0.0296999999999999,-0.57911,0.66123,-1.55788,-0.109023399
RJKGJBPXVHTNJL-UHFFFAOYNA-N,1-pentanol,173.171,192.048,-22435.474,-284.95887804878294,309.004,6.098789999999999,8.689,12.164,-1.0126499999999998,-1.06567,-0.50811,0.85772,-0.1549299999999999,-0.412425503
VGEREEWJJVICBM-UHFFFAOYNA-N,2-propanol,274.273,292.663,-30312.282,-84.36759999999776,309.004,6.098789999999999,10.099,12.174,-2.53086,-0.7610400000000002,-0.66901,0.69365,-2.53086,-0.331626453
CPJSUEIXXCENMM-WXRBYKJCNA-N,1-octanol,179.218,222.416,-26074.288000000004,-20.193571428575524,222.79,7.32194,10.153,11.523,-1.06563,-0.94121,-0.64397,0.66075,-1.50635,-0.866727535
WBYWAXJHAXSJNI-KZFATGLANA-N,2-butanol,148.161,186.247,-22757.534000000003,-497.9983750000065,180.895,4.53036,9.361,12.767,-1.10958,-0.44748,-0.62565,0.68358,-1.10958,-0.049635146
NRPFNQUDKRYCNX-KZFATGLANA-N,acetonitrile,166.176,200.273,-24304.068,-508.2443333333358,180.895,4.53036,12.649,10.503,-1.51121,-0.4613399999999999,-0.61359,0.6801,-1.51121,0.347320146
ZUOUZKKEUPVFJK-UHFFFAOYNA-N,"cis-1,4-dimethylcyclohexane",154.211,198.095,-21637.880000000005,-819.250814814819,180.895,4.53036,10.408,13.256,0.0,-1.52949,-0.17206,0.15676,0.0,0.09021055
WBYWAXJHAXSJNI-KZFATGLANA-N,1-heptanol,148.161,186.516,-22814.568,-555.0323750000025,180.777,4.46136,9.363,12.536,-1.10487,-0.44692,-0.62046,0.68124,-1.10487,0.218201724
RWCCWEUUXYIKHB-UHFFFAOYNA-N,octane,182.221,219.543,-23969.002,-571.362000000001,228.463,3.98879,10.13,14.079999999999998,-0.52312,-1.05734,-0.52312,0.55229,-0.52312,-0.363000818
XZAXQWXHBDKYJI-CMLSCEPHNA-N,thf,346.276,330.04,-33063.962,-527.203749999997,228.463,3.98879,8.597999999999999,11.739,-3.65775,-1.11128,-0.94318,1.60417,-2.05358,-1.28816507
PJANXHGTPQOBST-VAWYXSNFNA-N,1-butanol,180.249,233.288,-24224.822,-791.4557777777736,228.463,3.98879,9.614999999999998,11.777,0.0,-1.92473,-0.19072,0.16311,0.0,-1.239156915
CFOAUYCPAUGDFF-UHFFFAOYNA-N,ethanol,195.236,215.94,-25126.568,79.1867999999995,228.463,3.98879,10.196000000000002,12.912,-1.96884,-1.96562,-0.9865,2.46872,0.2485899999999997,-0.744727495
JTEGQNOMFQHVDC-IRNSGEEPNA-N,1-propanol,229.253,229.695,-26667.032,-906.4263999999894,246.403,7.266500000000001,9.651000000000002,12.437,-1.68619,0.8918699999999999,-0.65938,0.71865,-3.30083,-1.407731443
DFXQXFGFOLXAPO-KZFATGLANA-N,1-heptanol,201.566,197.247,-24576.994,-1310.112647058828,201.258,3.7524,8.69,13.407,-2.00456,0.21056,-0.58049,0.8612,-1.17044,-0.602059991
VPHHJAOJUJHJKD-KZFATGLANA-N,ethanol,191.013,187.61,-23592.146,-1944.4729696969664,201.258,3.7524,9.195,12.917,-1.07197,0.24127,-0.59707,0.66754,-1.18525,-0.54085536
YGSDEFSMJLZEOE-BGGKNDAXNA-N,1-propanol,138.123,157.412,-21754.684,-607.8714000000036,152.884,3.77795,9.363,12.528,-1.5882,0.15152,-0.62861,0.695,-1.5882,0.220108088
WJFKNYWRSNBZNX-UHFFFAOYNA-N,acetonitrile,199.27,217.26,-24752.998000000003,-1506.3780000000042,229.018,3.56757,12.293,9.43,0.0,-1.22785,-0.39887,0.30183,-0.43971,-0.661543506
WPYMKLBDIGXBTP-FZOZFQFYNA-N,1-pentanol,122.123,151.267,-20837.43,-1106.430650000002,144.24200000000002,3.42341,9.474,12.965,-1.09413,-0.1095899999999999,-0.61037,0.66447,-1.09413,0.364421514
GVIJJXMXTUZIOD-UHFFFAOYNA-N,1-pentanol,216.315,223.654,-23780.432,-781.7943157894733,239.68,2.12095,9.669,11.543,0.0,-1.29327,-0.14239,0.17671,-0.0915,-1.548335921
RZVAJINKPMORJF-BGGKNDAXNA-N,1-octanol,151.165,185.177,-23239.054000000004,-319.86468421053,239.68,2.12095,10.095,11.643,-1.13917,-0.42825,-0.6413,0.66125,-1.5794199999999998,-0.803490335
WBYWAXJHAXSJNI-KZFATGLANA-N,m-xylene,148.161,186.99,-22946.294,-686.7583750000013,239.68,2.12095,8.162,10.316,-1.05649,-0.4461699999999999,-0.57404,0.65802,-1.05649,-0.635513214
WMKGGPCROCCUDY-PHEQNACWNA-N,cyclohexanone,234.297,291.839,-28632.836,-526.624666666663,239.68,2.12095,8.604,10.193,-0.61497,-1.72175,-0.61497,0.62245,-0.61497,-0.041436117
YRHRIQCWCFGUEQ-UHFFFAOYNA-N,1-chlorobutane,212.266,221.762,-24509.258,-1316.167178571428,236.332,3.04367,9.28,10.039,-0.57991,-0.7973100000000001,-0.57991,0.5859,-0.5883400000000001,-1.537878631
JDCMOHAFGDQQJX-UHFFFAOYNA-N,ethylbenzene,272.097,214.933,-25507.838000000003,130.88419999999678,236.332,3.04367,7.167999999999999,10.291,0.0,0.62244,-0.0839,0.11963,-0.62241,0.491510538
XMTQQYYKAHVGBJ-XWKXFZRBNA-N,cyclooctane,233.097,243.359,-27287.02,-2302.3284799999965,251.54100000000005,7.58353,9.886,13.467,-0.59522,-0.24345,-0.59522,0.67247,-1.56593,-3.367485008
OLOOJGVNMBJLLR-UHFFFAOYNA-N,hexane,270.284,291.455,-30674.432,-911.8780000000006,251.54100000000005,7.58353,9.685,13.456,-1.4284599999999998,-0.9517,-0.5303,0.67108,-1.4284599999999998,-2.615109203
HYZJCKYKOHLVJF-FZOZFQFYNA-N,1-butanol,118.138,147.573,-19906.212,-432.68088888888815,141.02700000000002,5.20832,9.853,12.140999999999998,0.0,-0.53591,-0.43233,0.309,-0.65048,0.068556895
MWPLVEDNUUSJAV-UHFFFAOYNA-N,3-methoxy-1-butanol,178.233,211.323,-21530.678000000004,708.8404571428546,141.02700000000002,5.20832,8.285,10.594,0.0,-1.63252,-0.19753,0.16985,0.0,-1.630440462
YBZQRYWKYBZZNT-IAUQMDSZNA-N,ethanol,113.159,155.684,-22287.546,-1787.730333333333,154.459,5.33384,11.381,13.505,-0.69618,-0.93362,-0.69618,0.65307,-1.23682,0.222456337
YLQWCDOCJODRMT-UHFFFAOYNA-N,decane,180.206,204.757,-22236.49,-419.2062790697637,154.459,5.33384,9.43,13.503,-0.49295,-0.79833,-0.49295,0.56789,-0.49295,-0.920818754
BOCJQSFSGAZAPQ-UHFFFAOYNA-N,1-butanol,242.661,236.9,-25956.664,-785.1946530612222,154.459,5.33384,8.241,12.956,-1.07905,-0.1226899999999999,-0.54315,0.56998,-1.14629,-2.180900654
BGRJTUBHPOOWDU-QDYITYEQNA-N,ethanol,341.424,355.241,-34694.38999999999,-515.9274285714127,397.051,8.450330000000001,9.792000000000002,11.978,-3.05951,-1.76726,-0.99934,2.55948,-2.20772,-1.908958666
PEGCITODQASXKH-UHFFFAOYNA-N,p-xylene,216.219,242.362,-27520.426,-442.02771428570486,265.624,6.40891,8.676,10.407,-0.95132,-2.67083,-0.95132,1.45651,0.5051899999999999,-0.847215473
FFGPTBGBLSHEPO-ZHLVXTBQNA-N,peg400,236.273,250.059,-27252.736,-1397.580999999995,276.277,5.31117,9.078,10.033,-0.66744,-0.66616,-0.66744,0.69293,-1.60701,-0.861999998
ONUFSRWQCKNVSL-UHFFFAOYNA-N,"1,2-dichloroethane",334.116,260.826,-29233.378,185.95579999999973,276.277,5.31117,9.331,11.224,0.0,0.80637,-0.09572,0.16877,-0.8063899999999999,0.273611143
OFJWFSNDPCAWDK-WXRBYKJCNA-N,acetonitrile,164.204,201.553,-24400.068,-519.5040000000008,276.277,5.31117,12.669,11.102,-1.09873,-1.03159,-0.62178,0.64613,-1.09873,0.790988475
NIHNNTQXNPWCJQ-UHFFFAOYNA-N,4-methyl-2-pentanol,166.222,200.685,-21518.254,-116.1229999999996,207.07,0.689888,9.902,11.889,0.0,-1.65927,-0.32591,0.18393,0.0,-0.877034456
LVHBHZANLOWSRM-HJYFZBQUNA-N,methanol,130.1,153.563,-22252.73,-1001.7024999999958,207.07,0.689888,9.759,13.944,-2.18302,0.65544,-0.60637,0.67425,-2.18302,0.354793716
BLUAFEHZUWYNDE-NNWCWBAJNA-N,toluene,282.336,272.518,-30464.67000000001,-1573.3563636363688,207.07,0.689888,8.225999999999999,10.434,-1.90936,-1.65569,-0.5587,0.66184,-1.90936,-0.373092273
WJFKNYWRSNBZNX-UHFFFAOYNA-N,1-hexanol,199.27,217.26,-25015.061999999994,-1768.4419999999957,229.018,3.4181099999999995,9.867,10.957,0.0,-1.22058,-0.39869,0.2988,-0.43277,-0.905114135
WQZGKKKJIJFFOK-GASJEMHNNA-N,water,180.157,186.325,-25114.248000000003,-409.9792000000052,195.421,5.116810000000001,12.267,14.853000000000002,-3.3480600000000003,0.44372,-0.59543,0.35552,-3.3480600000000003,0.7214577
HXEWMTXDBOQQKO-UHFFFAOYNA-N,acetone,198.051,198.276,-23152.504,-1469.1359999999986,204.489,3.00227,8.703,10.173,0.0,-0.39649,-0.41316,0.23333,-0.57471,-0.127125236
GKODDAXOSGGARJ-KZFATGLANA-N,methanol,165.123,173.269,-22313.616,-1047.791200000007,171.16600000000005,7.41399,8.632,12.394,-0.95921,0.58873,-0.51753,0.47922,-1.49985,-0.820363064
JTEGQNOMFQHVDC-IRNSGEEPNA-N,ethanol,229.253,228.685,-26801.716,-1041.1103999999905,171.16600000000005,7.41399,9.843,12.45,-1.6582,0.86845,-0.66182,0.71774,-3.29009,-1.200492391
WZWYJBNHTWCXIM-ZTGFOJEANA-N,acetone,337.368,306.311,-31276.632,-494.95466666666834,171.16600000000005,7.41399,8.606,9.991,-2.97482,-0.7937299999999999,-0.96426,2.53413,-1.56852,-1.985451741
WBYWAXJHAXSJNI-KZFATGLANA-N,cyclohexanone,148.161,186.951,-23390.512,-1130.9763750000056,171.16600000000005,7.41399,8.916,10.42,-1.10406,-0.4514999999999999,-0.61739,0.68101,-1.10406,0.157456768
RXKNNAKAVAHBNK-UHFFFAOYNA-N,cyclooctane,140.098,154.652,-20083.778,1444.4256842105317,147.277,1.33155,8.399000000000001,14.653,-1.4860600000000002,-0.8120499999999999,-0.53239,0.84901,-0.0247,-3.385102784
UFWIBTONFRDIAS-UHFFFAOYNA-N,"cis-1,2-dimethylcyclohexane",128.173,165.632,-19422.54,174.24303030303054,147.277,1.33155,9.814,12.759,0.0,-1.22596,-0.16912,0.15523,0.0,0.057923493
WURBFLDFSFBTLW-UHFFFAOYNA-N,2-methyl-1-pentanol,210.232,239.885,-25695.856,-685.2102040816317,247.814,0.004468,8.508,12.942,-1.00715,-0.67413,-0.50362,0.44779,-1.00715,-0.958038698
YLQWCDOCJODRMT-UHFFFAOYNA-N,octane,180.206,204.757,-22236.886,-419.602279069768,212.595,4.24095,9.582999999999998,13.434,-0.49295,-0.7983399999999999,-0.49295,0.56789,-0.49295,-0.958607315
FBPFZTCFMRRESA-FBXFSONDNA-N,methanol,182.173,199.055,-25926.186,303.9415999999983,208.252,3.45817,11.758,13.595,-3.51662,0.17542,-0.60812,0.3593,-3.51662,-0.735794774
VZCYOOQTPOCHFL-KHGLRPAFNA-N,1-propanol,116.073,139.716,-21265.868,-1104.775999999998,208.252,3.45817,8.711,14.709,-2.0852500000000003,0.92303,-0.57594,0.65117,-2.0852500000000003,-0.723623714
JZFDKGFWNSQAHU-GPQMBLKYNA-N,methanol,254.285,275.907,-30097.878,-691.1947999999866,310.594,3.45065,9.229,12.731,-1.64761,-0.89552,-0.59456,0.65837,-1.64761,0.295645564
PEQHIRFAKIASBK-UHFFFAOYNA-N,ethanol,320.433,335.081,-33719.78999999999,-2170.449799999988,310.594,3.45065,10.464,12.31,0.0,-3.19177,-0.18855,0.16291,0.0,-3.609999808
DWQOTEPNRWVUDA-HCKMINDGNA-N,thf,242.234,244.267,-27971.110000000008,-747.8380000000034,310.594,3.45065,8.532,11.821000000000002,-1.54159,-0.4710299999999999,-0.58566,0.66046,-1.67873,-0.262807357
CWRYPZZKDGJXCA-UHFFFAOYNA-N,ethanol,154.211,187.049,-20847.636,514.2927999999993,310.594,3.45065,9.857,11.465,0.0,-1.65307,-0.29971,0.17122,0.0,-0.746177561
YNPNZTXNASCQKK-UHFFFAOYNA-N,methanol,178.233,209.472,-22881.188,-499.6081666666687,310.594,3.45065,9.556,11.526,0.0,-1.63975,-0.17557,0.16821,0.0,-0.861930008
KBOPZPXVLCULAV-KZFATGLANA-N,ethanol,153.137,171.523,-23125.69,-1302.2688000000016,310.594,3.45065,9.4,11.582,-1.58839,0.2882599999999999,-0.62439,0.68184,-2.09757,-1.432109236
OFJWFSNDPCAWDK-WXRBYKJCNA-N,toluene,164.204,199.586,-24352.414,-471.84999999999854,310.594,3.45065,9.35,10.15,-1.0543399999999998,-1.00392,-0.56107,0.62875,-1.0543399999999998,0.728353782
LETVJWLLIMJADE-GLFQYTTQNA-N,aniline,95.1036,125.97,-18915.178,-540.2532500000016,310.594,3.45065,7.595,10.343,0.0,-0.19623,-0.47241,0.27087,-0.91942,-0.419593428
YNPNZTXNASCQKK-UHFFFAOYNA-N,2-methyl-2-butanol,178.233,209.472,-22822.306,-440.72616666666727,219.387,0.0532007,9.412,11.815,0.0,-1.60481,-0.17304,0.16455,0.0,-0.754998753
BSYNRYMUTXBXSQ-WXRBYKJCNA-N,acetone,180.16,198.588,-25214.992,-1040.7101500000065,205.884,4.21502,9.069,10.905,-2.07768,0.32631,-0.60888,0.7146,-2.07768,0.011993115
GJCOSYZMQJWQCA-UHFFFAOYNA-N,2-methyl-2-propanol,182.221,210.426,-22716.402,-708.021512195126,205.884,4.21502,10.21,11.958,-0.36609,-1.3327,-0.36609,0.25055,-0.36609,-0.920818754
XPCTZQVDEJYUGT-UHFFFAOYNA-N,2-propanol,126.112,149.163,-20533.56,-527.2777499999975,205.884,4.21502,9.714,12.626,-1.33885,-0.0476199999999999,-0.61731,0.56872,-1.33885,-0.759807445
BXAOUWIVXLQYOZ-SPEPDGBUNA-N,2-propanol,443.542,450.196,-45335.02,-749.6538666666747,205.884,4.21502,10.255,12.391000000000002,-2.64938,-2.20693,-0.63601,0.72976,-3.9236,-1.0491422039140625
BXRFQSNOROATLV-UHFFFAOYNA-N,2-propanol,151.121,171.355,-21976.752,609.7909999999974,205.884,4.21502,8.494,13.576,-1.5482200000000002,-0.20054,-0.53712,0.84474,-0.70348,-20.0
IUWVALYLNVXWKX-UHFFFAOYNA-N,1-octanol,193.245,237.411,-27710.772,-1499.4230000000025,205.884,4.21502,9.857,11.937,-1.03536,-0.99174,-0.62607,0.67839,-1.53539,0.130005975
ROORDVPLFPIABK-UHFFFAOYNA-N,1-butanol,214.22,245.004,-25597.406,-397.5082857142879,205.884,4.21502,9.256,12.905,-1.33152,-0.41883,-0.55916,0.76489,-1.33152,-0.77980531
HEFNNWSXXWATRW-YHMJCDSINA-N,formamide,206.284,254.48,-29018.086,-1022.4340645161284,205.884,4.21502,10.61,10.366,-1.10703,-1.967,-0.61371,0.64654,-1.10703,-1.522878745
JDCMOHAFGDQQJX-UHFFFAOYNA-N,dichloroethane,272.097,214.933,-25528.558,110.1642000000029,205.884,4.21502,8.885,9.919,0.0,0.66456,-0.08934,0.12459,-0.66454,0.434675389
LVHBHZANLOWSRM-HJYFZBQUNA-N,ethanol,130.1,153.647,-22225.484,-974.4564999999966,147.79600000000002,4.30272,9.779,14.049,-2.17963,0.65415,-0.60449,0.67345,-2.17963,0.101825695
RZVAJINKPMORJF-BGGKNDAXNA-N,cyclohexane,151.165,184.96,-23605.544,-686.3546842105279,147.79600000000002,4.30272,10.382,12.876,-1.04975,-0.4159099999999999,-0.62205,0.64551,-1.5042600000000002,-2.1124032833770494
RWCCWEUUXYIKHB-UHFFFAOYNA-N,decane,182.221,219.802,-23935.838,-538.1979999999967,147.79600000000002,4.30272,9.977,14.148,-0.52312,-1.0573400000000002,-0.52312,0.55229,-0.52312,-0.599742073
KZTYYGOKRVBIMI-UHFFFAOYNA-N,2-isopropoxyethanol,218.27,232.158,-26110.268,97.51591666667082,147.79600000000002,4.30272,9.418,11.843,-1.98579,-2.0993,-0.99304,2.4537,0.4679099999999999,-0.66311988
DFXQXFGFOLXAPO-KZFATGLANA-N,thf,201.566,197.197,-24653.794,-1386.9126470588271,201.41,3.7579,7.868999999999999,12.983,-2.0062,0.21113,-0.58121,0.86175,-1.1715,0.290034611
KSKWGMNRWCYVAT-UHFFFAOYNA-N,2-propanol,256.255,269.69,-31705.020000000004,-191.1105714285732,201.41,3.7579,9.954,14.02,-3.04948,0.02362,-0.56409,0.6753,-3.04948,-1.299615382
NUVBSKCKDOMJSU-UHFFFAOYNA-N,ethanol,166.176,201.678,-25101.532000000007,-726.200909090916,201.41,3.7579,9.771,12.661,-1.52327,-0.3755199999999999,-0.6205,0.68355,-1.52327,0.35566413
JDCMOHAFGDQQJX-UHFFFAOYNA-N,dichloromethane,272.097,214.933,-25526.772,111.95019999999931,228.335,0.00269069,8.853,9.871,0.0,0.66247,-0.08909,0.12426,-0.66249,0.428284209
BBEAQIROQSPTKN-UHFFFAOYNA-N,undecane,202.255,222.477,-22095.636,12.472985074626196,228.335,0.00269069,9.372,12.218,0.0,-1.57044,-0.17523,0.15845,0.0,-0.980053318
QIQXTHQIDYTFRH-LILDFLRNNA-N,hexane,284.481,393.659,-37243.03,-96.74487499999668,228.335,0.00269069,11.425,15.260000000000002,-1.05608,-4.08415,-0.56926,0.64443,-1.05608,-1.351242292
XNGIFLGASWRNHJ-FLKJISBTNA-N,acetophenone,166.133,180.477,-23548.47,-859.9631428571447,182.04,2.80061,8.699,9.969,-2.11685,0.66121,-0.58288,0.65686,-2.11685,-1.390360446
ALYNCZNDIQEVRV-BGGKNDAXNA-N,thf,137.138,165.656,-21870.908000000003,-969.97227586207,182.04,2.80061,8.888,11.541,-1.1158,0.0243699999999999,-0.62469,0.68234,-1.61353,0.375323795
YRHRIQCWCFGUEQ-UHFFFAOYNA-N,cyclopentanol,212.266,221.762,-24738.88,-1545.789178571427,182.04,2.80061,9.061,12.088,-0.59049,-0.7957000000000001,-0.59049,0.59095,-0.60215,-1.567663317
YVUQSNJEYSNKRX-VJSLDGLSNA-N,1-heptanol,461.553,468.544,-39824.084,-764.0811249999897,182.04,2.80061,10.002,11.65,-0.63481,-2.6702,-0.63481,0.64037,-2.07943,-1.538630835
BOCJQSFSGAZAPQ-UHFFFAOYNA-N,2-pentanol,242.661,236.9,-25948.244,-776.774653061224,182.04,2.80061,8.322999999999999,12.95,-1.0744600000000002,-0.12588,-0.54107,0.56867,-1.14081,-2.213010774
LDZYRENCLPUXAX-UHFFFAOYSA-N,1-chlorobutane,132.165,167.389,-20969.568,-1231.5266666666648,162.04,5.11867,10.162,10.235,0.0,-0.8096800000000001,-0.50202,0.30308,-0.73925,-2.22184875
DWMREKMVXIFPFM-RWWBHRBBNA-N,1-propanol,351.394,322.0,-33470.878,-1437.840083333329,359.00300000000004,7.670019999999999,8.809000000000001,11.506,-2.97804,-0.91256,-0.98256,2.495,-1.75452,-3.133171165
CIWBSHSKHKDKBQ-JLAZNSOCNA-N,ethanol,176.126,177.299,-25065.378,-1134.3345000000008,183.407,5.22336,9.504,12.638,-2.89177,0.75618,-0.58737,0.62893,-2.89177,-1.276783325
ISAOCJYIOMOJEB-UHFFFAOYNA-N,benzene,212.248,245.433,-26608.050000000003,-936.2773157894773,259.519,1.78174,8.824000000000002,10.283,-1.02986,-1.05813,-0.52695,0.49764,-1.02986,-0.980492725