InChIkey,Solvent,MW,SASA,G_sol,DeltaG_sol,Volume,sol_dip,LsoluHsolv,LsolvHsolu,O_charges,C_charges,Most_neg,Most_pos,Het_charges,LogS
OGJPXUAPXNRGGI-QWOVJGMINA-N,ethanol,319.335,316.661,-34332.292,-1820.911333333337,259.519,1.78174,9.425,11.819,-1.75674,-0.4020900000000001,-0.64143,0.74446,-2.86419,-2.788823907
HYZJCKYKOHLVJF-FZOZFQFYNA-N,ethanol,118.138,147.573,-19914.050000000003,-440.5188888888915,259.519,1.78174,10.043,12.147,0.0,-0.53673,-0.43647,0.31021,-0.65295,0.139228601
GJCOSYZMQJWQCA-UHFFFAOYNA-N,octane,182.221,210.426,-22573.958,-565.5775121951228,259.519,1.78174,10.848999999999998,12.794,-0.34796,-1.27249,-0.34796,0.26182,-0.34796,-0.602059991
SATCULPHIDQDRE-UHFFFAOYNA-N,toluene,150.134,168.377,-21900.694,-1407.8105454545405,164.798,4.06199,8.224,9.658,-1.20691,0.2386999999999999,-0.50831,0.42105,-1.20691,0.806179974
BOCJQSFSGAZAPQ-UHFFFAOYNA-N,chlorobenzene,242.661,236.9,-25901.21,-729.7406530612243,164.798,4.06199,7.522,9.971,-1.04433,-0.14662,-0.52732,0.55997,-1.10495,-0.71839086
BSYNRYMUTXBXSQ-WXRBYKJCNA-N,2-methyl-1-pentanol,180.16,197.894,-24979.854000000003,-805.5721500000109,205.291,3.03735,9.064,13.135,-2.06784,0.32819,-0.59363,0.71551,-2.06784,-0.595166283
LXCFILQKKLGQFO-UHFFFAOYNA-N,methanol,152.149,181.48,-22917.284,-1319.4442222222242,205.291,3.03735,9.742,12.566,-1.49959,-0.0964099999999999,-0.61621,0.68444,-1.49959,0.370949644
WJFKNYWRSNBZNX-UHFFFAOYNA-N,heptane,199.27,217.299,-24480.172,-1233.5519999999997,229.084,2.5811200000000003,10.671,11.954,0.0,-1.1674,-0.3956,0.27815,-0.39015,-2.315984898
CKAPSXZOOQJIBF-UHFFFAOYNA-N,2-methyl-1-pentanol,284.784,220.81,-23580.442,1943.5558571428592,239.63,0.00310295,8.770999999999999,12.822,0.0,0.06091,-0.01031,0.01033,-0.0608999999999999,-1.952457316
RXKNNAKAVAHBNK-UHFFFAOYNA-N,"1,2-dichloroethane",140.098,154.652,-20181.03,1347.173684210531,239.63,0.00310295,8.800999999999998,10.646,-1.60372,-0.7438600000000001,-0.60058,0.87068,-0.1214199999999999,-0.665546249
WPYMKLBDIGXBTP-FZOZFQFYNA-N,sulfolane,122.123,151.319,-21375.504,-1644.5046500000026,145.112,3.5058,9.896,10.88,-1.10093,-0.10891,-0.61749,0.66782,-1.10093,0.302041994
NGTRZJDYCCOXBA-UHFFFAOYNA-N,acetone,215.312,254.282,-26638.37,-1486.1723999999997,264.535,2.11301,9.852,9.009,0.0,-1.80966,-0.47343,0.29023,-0.57214,0.491888947
RJKGJBPXVHTNJL-UHFFFAOYNA-N,water,173.171,192.125,-22489.648,-339.1328780487784,264.535,2.11301,10.106000000000002,13.318,-1.02249,-1.06988,-0.51254,0.86192,-0.16057,-3.623500144
DBUKZZKLTUXIQM-UHFFFAOYNA-N,1-propanol,362.335,372.686,-38563.174,-335.286500000002,264.535,2.11301,9.181,12.123,-3.66892,0.20966,-0.60009,0.66737,-3.66892,-0.9019957466101696
VHHHONWQHHHLTI-UHFFFAOYNA-N,1-octanol,236.74,176.295,-21906.67,-46.42730434782425,264.535,2.11301,8.607,14.403,0.0,0.28778,-0.04804,0.1439,-0.2877699999999999,-0.263280232
QUEKGYQTRJVEQC-KZFATGLANA-N,2-methyl-2-propanol,201.566,196.614,-24759.988,-1252.106608695649,264.535,2.11301,8.501,13.727,-2.04106,0.24634,-0.57302,0.86574,-1.21351,0.08278537
YFLCNWFWKPUGTP-UHFFFAOYNA-N,methanol,493.386,474.869,-42573.81199999999,-317.58449999999,264.535,2.11301,9.884,11.423,-2.57776,-0.94065,-0.64578,0.668,-3.67855,-1.26760624
VLYWMPOKSSWJAL-YAQRNVERNA-N,2-propanol,280.301,279.345,-29318.784,-40.499416666662,299.56,5.32527,9.378,12.131,-2.31603,-0.95201,-0.99095,2.57546,-1.50529,-2.097286205
AYIRNRDRBQJXIF-SVGYMEAUNA-N,1-butanol,358.211,324.584,-35338.676,-1144.2619999999952,365.977,4.04303,9.36,13.044999999999998,-3.21708,-1.47137,-1.00582,2.50504,-1.4916899999999995,-1.820244275
NCOSMKWGNCJPCR-YLHGWYNBNA-N,thf,549.111,551.958,-45825.14600000001,71.9739999999947,365.977,4.04303,8.385,11.209,-1.28012,-3.35005,-0.64455,0.632,-2.19012,-0.214670165
HEFNNWSXXWATRW-RILOQBQWNA-N,1-pentanol,206.284,257.271,-28286.606000000003,-1563.653199999997,365.977,4.04303,10.338,12.251,-1.09724,-1.97584,-0.60394,0.64206,-1.09724,0.268263505
BXRFQSNOROATLV-UHFFFAOYNA-N,cyclohexane,151.121,171.355,-21762.198,824.3449999999975,365.977,4.04303,8.491,14.974,-1.417,-0.2578,-0.47552,0.81752,-0.59948,-2.037860357
OTLNPYWUJOZPPA-BGGKNDAXNA-N,2-ethoxyethanol,167.121,179.815,-23275.76,-1400.201729729728,365.977,4.04303,7.612,12.861,-2.04659,0.0670899999999999,-0.57803,0.84171,-1.2048800000000002,-0.516386745
HVYWMOMLDIMFJA-DPAQBDIFNA-N,1-propanol,386.66,431.498,-40889.768,-2128.307272727281,365.977,4.04303,11.57,12.157,-0.62668,-6.07792,-0.62668,0.34154,-0.62668,-0.86010729
DAUAQNGYDSHRET-KZFATGLANA-N,"1,4-dioxane",182.176,208.528,-26086.278,-1736.8618461538465,365.977,4.04303,8.872,10.639,-1.74566,-0.0664299999999999,-0.56752,0.64663,-1.74566,-0.479999999
YJGVMLPVUAXIQN-XVVDYKMHNA-N,acetone,414.411,379.474,-37367.072,-279.9096666666592,365.977,4.04303,9.614,9.74,-3.41732,-0.54228,-0.58187,0.66532,-3.41732,-0.900319359
YRHRIQCWCFGUEQ-UHFFFAOYNA-N,2-methyl-1-propanol,212.266,221.762,-24805.102,-1612.0111785714253,365.977,4.04303,8.956999999999999,11.983,-0.59228,-0.79545,-0.59228,0.59178,-0.6044700000000001,-2.008460282
QIGBRXMKCJKVMJ-UHFFFAOYNA-N,water,110.112,138.879,-19054.721999999994,175.03166666667312,129.894,0.0026490999999999,11.418,12.901,-1.01355,-0.43679,-0.5068,0.35801,-1.01355,-0.17
REFJWTPEDVJJIY-UHFFFAOYNA-N,ethanol,302.24,287.656,-29806.716000000004,455.242499999993,129.894,0.0026490999999999,9.079,12.086,-3.18989,0.3525100000000001,-0.62164,0.58738,-3.18989,-0.961072491
WJFKNYWRSNBZNX-UHFFFAOYNA-N,methanol,199.27,217.299,-25038.66,-1792.0400000000009,129.894,0.0026490999999999,10.013,10.886,0.0,-1.22815,-0.39853,0.30042,-0.4377999999999999,-0.925609999
SKZKKFZAGNVIMN-FSHFIPFONA-N,water,137.138,161.023,-21227.892,-728.6801176470544,156.476,6.776109999999999,10.998,13.59,-1.208,0.0572799999999999,-0.69504,0.64184,-1.72282,-1.785636252
ONUFSRWQCKNVSL-UHFFFAOYNA-N,ethylbenzene,334.116,260.826,-29304.912000000004,114.42179999998916,156.476,6.776109999999999,7.776999999999999,11.33,0.0,0.76778,-0.09549,0.16444,-0.7678,0.41669504
YLQWCDOCJODRMT-UHFFFAOYNA-N,undecane,180.206,204.757,-22234.908,-417.6242790697616,212.587,4.241,9.349,13.442,-0.49295,-0.79835,-0.49295,0.56789,-0.49295,-0.920818754
CWRYPZZKDGJXCA-UHFFFAOYNA-N,undecane,154.211,186.967,-20974.072,387.856800000005,192.441,1.34685,10.216,12.519,0.0,-1.57085,-0.29293,0.16217,0.0,-0.390405591
FBPFZTCFMRRESA-FBXFSONDNA-N,acetone,182.173,199.473,-27260.984,-1030.8564000000006,213.24,3.59714,11.568,11.158,-3.42343,0.03034,-0.58001,0.34877,-3.42343,-2.181807353
MWPLVEDNUUSJAV-UHFFFAOYNA-N,decane,178.233,211.323,-21521.676,717.8424571428586,221.702,0.000705557,9.475,12.274,0.0,-1.55634,-0.19283,0.16168,0.0,-1.920818754
OTLNPYWUJOZPPA-BGGKNDAXNA-N,2-butanol,167.121,179.686,-23327.536,-1451.977729729726,221.702,0.000705557,8.272,13.670000000000002,-2.05361,0.07056,-0.58138,0.8435,-1.21011,-1.0
DCOPUUMXTXDBNB-GPQMBLKYNA-N,methanol,296.152,271.982,-30220.732000000004,-1638.4954000000034,221.702,0.000705557,9.904,11.814,-1.09533,-0.62633,-0.60338,0.66985,-1.67122,-0.791142753
BTJIUGUIPKRLHP-UHFFFAOYNA-N,"2,2,4-trimethylpentane",139.11,157.82,-20870.518,2616.113000000001,221.702,0.000705557,9.355,14.347,-1.43026,-0.49757,-0.49399,0.84721,-0.58305,-3.48148606
VLYWMPOKSSWJAL-YAQRNVERNA-N,2-methyl-1-propanol,280.301,279.896,-29368.968,-90.68341666666674,221.702,0.000705557,9.082,12.062,-2.31427,-0.95307,-0.98922,2.57275,-1.5008899999999998,-2.332217855
RZVAJINKPMORJF-BGGKNDAXNA-N,2-propanol,151.165,184.797,-23202.916,-283.7266842105237,221.702,0.000705557,10.224,11.844,-1.15504,-0.43073,-0.65399,0.66345,-1.59306,-0.137494308
WJFKNYWRSNBZNX-UHFFFAOYNA-N,4-methyl-2-pentanol,199.27,217.26,-24990.208,-1743.5880000000034,221.702,0.000705557,9.949,11.010000000000002,0.0,-1.21939,-0.39866,0.29832,-0.43169,-1.238783905
WURBFLDFSFBTLW-UHFFFAOYNA-N,2-propoxyethanol,210.232,239.918,-26133.25,-1122.604204081632,254.742,5.170909999999999,8.453999999999999,11.979,-1.00128,-0.67226,-0.50094,0.43846,-1.00128,-0.238752579
PEQHIRFAKIASBK-UHFFFAOYNA-N,"1,4-dioxane",320.433,334.609,-31590.252,-40.9117999999944,254.742,5.170909999999999,9.738,11.041,0.0,-3.07684,-0.18218,0.15902,0.0,-2.070000019
XMTQQYYKAHVGBJ-XWKXFZRBNA-N,ethanol,233.097,243.539,-26901.82,-1917.12848,251.203,7.31099,9.883,12.009,-0.66899,-0.26612,-0.66899,0.68265,-1.63807,-0.800000001
ISAOCJYIOMOJEB-UHFFFAOYNA-N,1-propanol,212.248,245.386,-26718.384,-1046.611315789476,251.203,7.31099,9.368,12.765,-1.09009,-1.08204,-0.54589,0.52134,-1.09009,-1.459503369
CIWBSHSKHKDKBQ-JLAZNSOCNA-N,water,176.126,183.462,-24242.47,-311.42650000000503,251.203,7.31099,10.711,13.794,-2.92618,0.78964,-0.59012,0.64434,-2.92618,0.246923968
IMMLSOUHQHJKTL-LNNLXFCONA-N,ethanol,467.348,453.345,-42354.162,-272.8724999999977,251.203,7.31099,9.957,11.706,-2.53825,-0.8122900000000001,-0.61282,0.65226,-3.69536,-1.259637311
CPJSUEIXXCENMM-WXRBYKJCNA-N,ethanol,179.218,224.987,-26053.514,0.5804285714293655,223.172,7.43564,10.244000000000002,11.634,-1.08623,-0.9280900000000002,-0.65689,0.66358,-1.52379,-0.533530037
MUMGGOZAMZWBJJ-DYKIIFRCNA-N,dmso,288.429,300.796,-31485.684000000005,-688.0030000000079,376.651,6.64828,8.107,11.122,-1.2396600000000002,-3.25479,-0.64031,0.64179,-1.2396600000000002,-0.125253682
RZVHIXYEVGDQDX-UHFFFAOYNA-N,acetonitrile,208.216,221.415,-23793.564,-229.0919999999969,376.651,6.64828,10.776,11.616,-1.11394,-0.30128,-0.55714,0.5632,-1.11394,-2.397502677
MWPLVEDNUUSJAV-UHFFFAOYNA-N,dmso,178.233,211.323,-21532.664,706.8544571428611,221.709,0.00236384,6.971,9.192,0.0,-1.63657,-0.19775,0.17028,0.0,-0.916562228
QECIGCMPORCORE-UHFFFAOYNA-N,chloroform,206.243,229.614,-25017.482,-1120.6467999999986,221.709,0.00236384,9.894,8.257,-0.53851,-1.0516,-0.53851,0.43386,-0.53851,-1.397940009
GECHUMIMRBOMGK-YHMJCDSINA-N,water,249.287,245.132,-27577.842,-816.4923999999992,275.867,10.3566,11.208,13.128,-1.95323,-1.15788,-0.97918,2.5543,-1.12062,-2.470464762
IEDVJHCEMCRBQM-CLRGVMNRNA-N,1-pentanol,290.321,312.651,-32541.644,-1072.3757777777755,275.867,10.3566,9.815,12.092,-1.12929,-0.26043,-0.59377,0.45199,-3.19894,-2.114210116
YNPNZTXNASCQKK-UHFFFAOYNA-N,2-pentanol,178.233,209.472,-22834.348,-452.7681666666649,275.867,10.3566,9.47,11.612,0.0,-1.62913,-0.17484,0.16715,0.0,-0.793886987
QIGBRXMKCJKVMJ-UHFFFAOYNA-N,ethanol,110.112,138.907,-19138.728,91.02566666666826,275.867,10.3566,10.176,11.813,-1.0089899999999998,-0.43499,-0.50452,0.3562,-1.0089899999999998,0.592064712
RJKGJBPXVHTNJL-UHFFFAOYNA-N,2-butanol,173.171,192.125,-22420.153999999995,-269.63887804877595,275.867,10.3566,8.717,12.364,-1.01389,-1.06542,-0.50864,0.85886,-0.15503,-0.452032331
YLQWCDOCJODRMT-UHFFFAOYNA-N,1-hexanol,180.206,204.757,-22305.516000000003,-488.232279069769,212.585,5.26125,8.818,12.289,-0.55121,-0.80422,-0.55121,0.59576,-0.55121,-0.387216143
BXAOUWIVXLQYOZ-SPEPDGBUNA-N,methanol,443.542,458.348,-44142.588,442.778133333326,562.8349999999999,5.44034,10.202,12.277,-2.62237,-2.20534,-0.64738,0.73566,-3.91873,-1.337242168
POULHZVOKOAJMA-NDKGDYFDNA-N,methanol,200.32,276.48,-29734.886,-753.1860000000015,562.8349999999999,5.44034,10.741,13.599,-1.11978,-2.49132,-0.63107,0.67486,-1.11978,0.425818256
MHKKFFHWMKEBDW-UHFFFAOYNA-N,thf,228.201,238.949,-28863.734,-897.8548571428582,257.165,5.58813,8.851999999999999,13.41,-2.95111,0.5719599999999999,-0.57176,0.66833,-2.95111,-0.841940531
MWPLVEDNUUSJAV-UHFFFAOYNA-N,2-pentanol,178.233,211.323,-21533.638000000003,705.8804571428554,221.701,0.00192004,8.952,11.122,0.0,-1.63942,-0.19795,0.17058,0.0,-2.134037647
LXCFILQKKLGQFO-UHFFFAOYNA-N,decane,152.149,181.346,-23716.546,-2118.706222222226,221.701,0.00192004,10.185,13.852,-1.42504,-0.0913299999999999,-0.56372,0.65932,-1.42504,-3.203723392
GKODDAXOSGGARJ-KZFATGLANA-N,acetonitrile,165.123,173.269,-22315.496,-1049.6712000000043,171.16600000000005,7.43491,10.911,10.937,-0.96088,0.5894400000000001,-0.51844,0.47958,-1.50117,-0.964280006
OTLNPYWUJOZPPA-BGGKNDAXNA-N,2-methyl-1-propanol,167.121,179.704,-23344.612,-1469.053729729727,176.886,4.52623,8.161,13.596,-2.05502,0.07119,-0.58206,0.84385,-1.21117,-1.15490196
OBKXEAXTFZPCHS-WXRBYKJCNA-N,toluene,164.204,206.852,-24009.13,-202.68033333333733,213.211,2.16801,9.516,9.989,-1.06057,-1.0343,-0.57557,0.6415,-1.06057,0.564666064
YNPNZTXNASCQKK-UHFFFAOYNA-N,2-ethyl-1-hexanol,178.233,209.472,-22843.378,-461.7981666666674,213.211,2.16801,9.363,11.573,0.0,-1.61498,-0.17384,0.1656,0.0,-0.74119231
GJCOSYZMQJWQCA-UHFFFAOYNA-N,hexadecane,182.221,210.426,-22603.812,-595.4315121951258,218.229,1.67884,10.587,12.673,-0.34796,-1.27246,-0.34796,0.26181,-0.34796,-0.619788758
ZWLPBLYKEWSWPD-BGGKNDAXNA-N,1-octanol,136.15,167.004,-22268.4,-1260.31725,165.96,3.55367,9.695,12.659,-1.09237,-0.4916600000000001,-0.61683,0.67912,-1.09237,0.030004144
GVEPBJHOBDJJJI-UHFFFAOYNA-N,2-propanol,202.255,227.244,-23072.194000000003,-508.27420408163016,165.96,3.55367,9.125,11.806,0.0,-1.65028,-0.15691,0.16791,0.0,-1.211831629
LDCRTTXIJACKKU-ONEGZZNKNA-N,ethanol,144.127,180.164,-23698.124,-248.37133333333983,167.738,0.00249578,8.978000000000002,14.392,-1.91971,0.46842,-0.58163,0.65022,-1.91971,-0.987162775
WBYWAXJHAXSJNI-KZFATGLANA-N,methanol,148.161,186.247,-22736.098,-476.5623750000013,167.738,0.00249578,9.495,12.54,-1.11471,-0.4476799999999999,-0.63145,0.68615,-1.11471,0.123169254
UFWIBTONFRDIAS-UHFFFAOYNA-N,dichloroethane,128.173,165.632,-19453.294,143.48903030302972,165.041,0.00107951,10.155,8.981,0.0,-1.28369,-0.17604,0.16267,0.0,0.503679696
LNEPOXFFQSENCJ-UHFFFAOYNA-N,chloroform,375.87,394.837,-37341.350000000006,-2099.41822222223,165.041,0.00107951,10.438,8.148,-1.16956,-2.08646,-0.60525,0.59297,-1.7815,0.145180614
WURBVZBTWMNKQT-UHFFFAOYNA-N,heptane,293.752,302.437,-30411.394,-1271.081714285705,165.041,0.00107951,10.081,13.582,-0.8146800000000001,-1.27061,-0.52504,0.4327,-1.58246,-1.653352881
KZTYYGOKRVBIMI-UHFFFAOYNA-N,methanol,218.27,232.257,-25617.536000000004,590.2479166666635,165.041,0.00107951,10.031,12.797,-2.00131,-2.10176,-1.00071,2.45941,0.4581000000000002,-0.944350942
WZWYJBNHTWCXIM-ZTGFOJEANA-N,water,337.368,297.641,-30609.804,171.87333333333663,165.041,0.00107951,9.844,13.155,-3.0331900000000003,-0.7312400000000001,-0.98382,2.55025,-1.58292,-3.803661169
YLYIXDZITBMCIW-UHFFFAOYNA-N,methanol,213.235,241.978,-26570.601999999995,-756.5033333333304,165.041,0.00107951,9.852,12.091,-0.93794,-0.8977499999999999,-0.59886,0.61317,-1.1213,-0.698970004
ZEYHEAKUIGZSGI-BGGKNDAXNA-N,2-isopropoxyethanol,152.149,180.547,-23489.950000000004,-2003.4280689655209,165.041,0.00107951,9.145,11.447,-1.47736,-0.09663,-0.61452,0.68094,-1.47736,-0.505627661
CPJSUEIXXCENMM-WXRBYKJCNA-N,"1,4-dioxane",179.218,225.475,-26527.516,-473.42157142857104,165.041,0.00107951,9.565,10.293,-0.9922,-0.90542,-0.62237,0.64627,-1.4432,-0.714094557
KZTYYGOKRVBIMI-UHFFFAOYNA-N,1-butanol,218.27,232.158,-27841.95,-1634.1660833333335,165.041,0.00107951,9.851,12.907,-1.99512,-2.10094,-0.99763,2.45715,0.4620299999999999,-1.244179503
RINCXYDBBGOEEQ-UHFFFAOYNA-N,acetonitrile,100.074,120.789,-18384.344000000005,-641.5455000000075,165.041,0.00107951,12.086,13.139,-1.45204,0.54824,-0.50997,0.68902,-1.45204,0.620244671
UJOBWOGCFQCDNV-UHFFFAOYNA-N,cyclohexane,167.21,198.372,-21775.964,-115.21360000000276,203.276,1.49758,10.234,12.567,0.0,-1.21811,-0.2963,0.27814,-0.2963,-2.764159075
AYIRNRDRBQJXIF-SVGYMEAUNA-N,1-propanol,358.211,314.354,-36279.832,-2085.417999999998,203.276,1.49758,9.532,12.952000000000002,-3.18706,-1.48993,-1.00643,2.50528,-1.48062,-1.445065189
QIQXTHQIDYTFRH-LILDFLRNNA-N,butanone,284.481,383.289,-36719.634000000005,426.6511249999967,203.276,1.49758,10.427,11.302,-1.12031,-4.05728,-0.61693,0.67198,-1.12031,-0.914628987
ZEYHEAKUIGZSGI-BGGKNDAXNA-N,water,152.149,180.342,-23208.838,-1722.316068965516,178.38799999999998,5.53666,10.983,13.622,-1.49486,-0.09716,-0.62843,0.68704,-1.49486,-2.522878745
ZWLPBLYKEWSWPD-BGGKNDAXNA-N,2-methyl-2-propanol,136.15,166.523,-22074.628000000004,-1066.5452500000029,178.38799999999998,5.53666,9.692,12.938,-1.10214,-0.48821,-0.60519,0.67663,-1.10214,0.340444115
WWZKQHOCKIZLMA-BGGKNDAXNA-N,ethanol,144.213,200.251,-24650.584,-951.9104999999944,178.38799999999998,5.53666,10.738,13.977,-1.11421,-1.44343,-0.62699,0.66603,-1.11421,-1.096910013
CMWTZPSULFXXJA-GTNTULIANA-N,dmf,230.263,260.722,-28817.65,-1131.705771428573,178.38799999999998,5.53666,8.453000000000001,9.916,-1.4811,-1.10277,-0.59942,0.63933,-1.4811,0.145196406
GKODDAXOSGGARJ-KZFATGLANA-N,nitromethane,165.123,173.269,-22314.902,-1049.0772000000034,178.38799999999998,5.53666,9.527,8.872,-0.96037,0.58921,-0.51816,0.47947,-1.50077,-1.064835191
CWRYPZZKDGJXCA-UHFFFAOYNA-N,methylcyclohexane,154.211,187.049,-20895.904,466.0247999999992,178.38799999999998,5.53666,10.141,12.687,0.0,-1.57086,-0.2929,0.16217,0.0,-0.195549896
OLOOJGVNMBJLLR-UHFFFAOYNA-N,methanol,270.284,297.115,-30772.97600000001,-1010.422000000006,178.38799999999998,5.53666,9.113,11.797,-1.58548,-0.95009,-0.56802,0.70852,-1.58548,-1.741123371
DCOPUUMXTXDBNB-GPQMBLKYNA-N,"1,4-dioxane",296.152,281.89,-29858.266000000003,-1276.029400000003,178.38799999999998,5.53666,9.148,10.505,-1.06029,-0.59559,-0.56964,0.65442,-1.60384,0.126686209
BGNGWHSBYQYVRX-UHFFFAOYNA-N,ethanol,149.192,191.304,-22853.646,-1187.5382857142831,178.38799999999998,5.53666,9.932,11.373,-0.61192,-0.91692,-0.61192,0.46945,-0.87058,-0.200659451
GJCOSYZMQJWQCA-UHFFFAOYNA-N,2-ethoxyethanol,182.221,210.478,-22940.382,-932.001512195122,178.38799999999998,5.53666,9.469,11.039,-0.36581,-1.33165,-0.36581,0.25067,-0.36581,-0.370300646
HUPFGZXOMWLGNK-HCKMINDGNA-N,methanol,250.201,251.315,-28338.522,-1315.489500000003,267.398,6.529059999999999,9.585,12.232,-1.56943,0.02649,-0.61449,0.70547,-1.88485,-0.449771647
SKZKKFZAGNVIMN-FSHFIPFONA-N,1-pentanol,137.138,161.072,-21209.044,-709.8321176470563,267.398,6.529059999999999,9.668,12.477,-1.18982,0.0634599999999999,-0.69303,0.64857,-1.73309,-0.53313238
YRHRIQCWCFGUEQ-UHFFFAOYNA-N,hexadecane,212.266,221.762,-24063.368,-870.2771785714285,267.398,6.529059999999999,9.554,12.857,-0.53866,-0.8025,-0.53866,0.56473,-0.5336000000000001,-2.323533014
VYWYYJYRVSBHJQ-KZFATGLANA-N,1-heptanol,212.118,207.639,-25226.804000000004,-1321.0432592592624,267.398,6.529059999999999,8.16,14.322,-2.99961,0.27433,-0.57181,0.87173,-1.25668,-0.651648602
MSWPGMRTURVKRJ-UHFFFAOYNA-N,methanol,211.263,259.304,-27842.94,-2177.257000000005,267.398,6.529059999999999,9.924,12.041,-0.389,-1.39847,-0.39319,0.36946,-0.7821899999999999,-0.041436117
RJKGJBPXVHTNJL-UHFFFAOYNA-N,undecane,173.171,192.125,-22429.374,-278.8588780487771,197.37,5.995080000000001,9.108999999999998,13.483,-0.95359,-1.03836,-0.47813,0.82999,-0.1235999999999999,-0.85004544
ZUOUZKKEUPVFJK-UHFFFAOYNA-N,2-ethoxyethanol,154.211,198.095,-21984.576,-1165.9468148148153,197.37,5.995080000000001,9.444,11.492,0.0,-1.59559,-0.17919,0.16283,0.0,0.122971063
NSTQUZVZBUTVPY-UHFFFAOYNA-N,1-propanol,302.283,314.003,-32664.644,735.5120000000024,197.37,5.995080000000001,9.154,12.062,-2.8357900000000003,0.13898,-0.56764,0.44953,-2.8357900000000003,-0.9019957466101696
YRHRIQCWCFGUEQ-UHFFFAOYNA-N,benzene,212.266,221.762,-24099.878,-906.7871785714232,197.37,5.995080000000001,8.5,9.312,-0.54463,-0.80189,-0.54463,0.56794,-0.5416,-1.239112814
YRHRIQCWCFGUEQ-UHFFFAOYNA-N,heptane,212.266,221.762,-24045.114,-852.0231785714277,197.37,5.995080000000001,9.876,12.967,-0.53639,-0.8027399999999999,-0.53639,0.56349,-0.53054,-2.519428266
CKAPSXZOOQJIBF-UHFFFAOYNA-N,"1,4-dioxane",284.784,220.81,-23576.674,1947.3238571428592,197.37,5.995080000000001,8.179,11.718,0.0,0.02722,-0.0046,0.00461,-0.0272099999999999,-1.349508694
CGIGDMFJXJATDK-QWOVJGMINA-N,1-octanol,357.793,353.798,-35028.10800000001,-359.1145000000106,197.37,5.995080000000001,9.152,11.69,-2.04822,-0.69992,-0.5968,0.66309,-2.41241,-1.469999995
WURBFLDFSFBTLW-UHFFFAOYNA-N,"2,2,4-trimethylpentane",210.232,240.038,-25853.417999999994,-842.7722040816261,255.441,4.43924,9.534,14.204999999999998,-0.92548,-0.6851,-0.46285,0.41967,-0.92548,-1.449999999
BLFLLBZGZJTVJG-UHFFFAOYNA-N,1-octanol,165.191,204.773,-24924.13,-785.5365714285726,202.974,4.522209999999999,9.832,11.954,-1.05093,-0.49074,-0.61666,0.68951,-1.55024,-0.364007555