InChIkey,Solvent,MW,SASA,G_sol,DeltaG_sol,Volume,sol_dip,LsoluHsolv,LsolvHsolu,O_charges,C_charges,Most_neg,Most_pos,Het_charges,LogS
MFFDJRYGVWMCQY-UHFFFAOYNA-N,toluene,224.305,278.911,-28004.116,-857.2186666666603,236.332,3.17897,9.098,8.642,0.0,-1.87452,-0.38511,0.30587,-0.63445,-0.121478204
QUEKGYQTRJVEQC-KZFATGLANA-N,water,201.566,196.512,-24536.146,-1028.264608695652,236.332,3.17897,9.834,14.555,-2.06396,0.25817,-0.58328,0.87107,-1.2324,-1.744727495
VRPJIFMKZZEXLR-DEPUQRHONA-N,water,175.184,211.268,-26678.64,-296.4206153846135,236.332,3.17897,11.631,14.508,-2.24983,-0.0382899999999999,-0.66649,0.75184,-2.70672,-0.080921908
PYHXGXCGESYPCW-YAQRNVERNA-N,ethanol,212.248,243.913,-26665.762,-813.4328571428559,263.636,2.6176500000000003,10.32,12.633,-1.08358,-1.11559,-0.59354,0.65313,-1.08358,0.06069784
FJKROLUGYXJWQN-BGGKNDAXNA-N,ethanol,138.123,160.87,-21756.288,-918.3947142857104,155.071,2.55654,9.701,12.717,-1.59035,0.13519,-0.62268,0.68481,-1.59035,0.35227352
YGSDEFSMJLZEOE-BGGKNDAXNA-N,"1,4-dioxane",138.123,157.307,-21232.116,-85.30340000000433,155.071,2.55654,8.734,11.383,-1.5310899999999998,0.1444499999999999,-0.59532,0.67746,-1.5310899999999998,0.48106748
JDCMOHAFGDQQJX-UHFFFAOYNA-N,octane,272.097,214.933,-25504.468000000004,134.25419999999576,155.071,2.55654,8.811,13.91,0.0,0.61396,-0.0828,0.11863,-0.6139600000000001,-0.200318339
IWYDHOAUDWTVEP-KZFATGLANA-N,methanol,152.149,178.415,-22825.11,-691.521333333334,155.071,2.55654,10.207,12.753,-1.59714,-0.1293699999999999,-0.58914,0.5807,-1.59714,0.558708571
CWRYPZZKDGJXCA-UHFFFAOYNA-N,1-heptanol,154.211,186.967,-20963.678,398.2508000000016,155.071,2.55654,9.718,11.334,0.0,-1.64226,-0.29891,0.17002,0.0,-0.48704892
CDVNZMKTJIBBBV-WXRBYKJCNA-N,2-pentanol,226.145,221.246,-26230.402,-1147.5573333333268,155.071,2.55654,8.386,14.096,-2.99087,-0.15993,-0.56972,0.87757,-1.24083,-0.862850761
XMTQQYYKAHVGBJ-XWKXFZRBNA-N,1-pentanol,233.097,243.345,-27245.462,-2260.770479999996,251.02400000000003,9.04208,9.676,11.926,-0.66219,-0.26524,-0.66219,0.68071,-1.63123,-0.892550312
CDVNZMKTJIBBBV-WXRBYKJCNA-N,1-butanol,226.145,221.051,-26297.19,-1214.3453333333273,251.02400000000003,9.04208,8.315999999999999,14.089,-2.99741,-0.15803,-0.57127,0.87905,-1.2451599999999998,-0.785583411
CWRYPZZKDGJXCA-UHFFFAOYNA-N,"1,4-dioxane",154.211,186.967,-20956.594,405.3348000000005,251.02400000000003,9.04208,9.158,10.175,0.0,-1.57719,-0.29346,0.16286,0.0,0.181557774
JZFPYUNJRRFVQU-VEWCPZSHNA-N,chlorobenzene,282.222,277.119,-29607.794,-1470.702631578948,292.392,5.29832,8.355,8.959,-1.08051,0.5786699999999999,-0.60516,0.69761,-2.50787,-1.30980392
NIHNNTQXNPWCJQ-UHFFFAOYNA-N,2-methyl-1-butanol,166.222,200.685,-21631.704,-229.57299999999668,292.392,5.29832,9.692,11.831,0.0,-1.66066,-0.32598,0.18408,0.0,-0.774557881
BXRFQSNOROATLV-UHFFFAOYNA-N,benzene,151.121,171.355,-21778.434,808.1090000000004,167.055,4.06213,7.566000000000001,11.188,-1.43157,-0.25176,-0.47917,0.82074,-0.61083,-0.340934928
XVOYSCVBGLVSOL-UDYUCESTNA-N,dmso,169.152,163.275,-24139.7,-1206.6740000000027,167.055,4.06213,8.104,11.66,-3.73224,-0.21402,-0.96479,2.53948,-1.7121,0.821856777
MWPLVEDNUUSJAV-UHFFFAOYNA-N,1-hexanol,178.233,211.323,-21533.936,705.5824571428602,167.055,4.06213,8.888,11.12,0.0,-1.63863,-0.1979,0.1705,0.0,-1.920818754
YGSDEFSMJLZEOE-BGGKNDAXNA-N,water,138.123,160.129,-21995.402,-848.5894000000044,167.055,4.06213,10.975,13.678,-1.58912,0.15034,-0.62487,0.70869,-1.58912,-1.850548907
IWYDHOAUDWTVEP-KZFATGLANA-N,toluene,152.149,178.168,-22888.856,-755.2673333333332,167.055,4.06213,9.093,10.34,-1.53922,-0.1137799999999999,-0.52356,0.55426,-1.53922,-0.7739211268404256
HCUARRIEZVDMPT-WXRBYKJCNA-N,toluene,161.16,184.556,-22861.972,-622.1359999999986,167.055,4.06213,8.270999999999999,9.357,-1.03816,-0.24194,-0.56943,0.65799,-1.21057,-2.151583261
SWJPEBQEEAHIGZ-UHFFFAOYNA-N,hexadecane,235.906,168.859,-20951.024,-1931.5911764705925,167.055,4.06213,10.101,13.658,0.0,-0.53737,-0.14048,0.17758,-0.1728,-0.242820251
YRHRIQCWCFGUEQ-UHFFFAOYNA-N,2-methyl-2-butanol,212.266,221.762,-24401.164,-1208.073178571423,236.332,2.98917,9.066,12.117,-0.57463,-0.79809,-0.57463,0.58333,-0.5814199999999999,-1.866833819
LETVJWLLIMJADE-GLFQYTTQNA-N,1-propanol,95.1036,125.838,-18926.088,-551.1632500000014,236.332,2.98917,9.367,12.744,0.0,-0.17646,-0.4772,0.27688,-0.9574,-0.536100755
SKZKKFZAGNVIMN-FSHFIPFONA-N,acetonitrile,137.138,160.839,-21305.656000000003,-806.4441176470573,236.332,2.98917,12.016,10.944,-1.20306,0.0573199999999999,-0.69141,0.64158,-1.71963,-0.230622674
HLNDPICGHQGWSU-UHFFFAOYNA-N,butanone,330.337,347.041,-36633.43,-893.1875000000073,236.332,2.98917,8.876,9.925,-2.91511,-0.8001299999999999,-0.63682,0.63273,-2.91511,-0.7329897903157895
NRPFNQUDKRYCNX-KZFATGLANA-N,thf,166.176,200.556,-24323.228000000003,-527.4043333333393,236.332,2.98917,9.431,11.502,-1.4973,-0.4575699999999999,-0.60319,0.67491,-1.4973,0.56809471
QGJZLNKBHJESQX-WRDJYESVNA-N,thf,456.707,431.953,-40982.026000000005,-20.21916666666948,603.681,5.48861,10.002999999999998,12.009,-1.70566,-5.72796,-0.60512,0.61758,-1.70566,-1.592356598
ZWLPBLYKEWSWPD-BGGKNDAXNA-N,1-propanol,136.15,166.478,-22212.088000000003,-1204.005250000002,164.86100000000002,2.80896,9.583,12.641000000000002,-1.10623,-0.4887499999999999,-0.60917,0.67855,-1.10623,0.247973266
SJEBAWHUJDUKQK-UHFFFAOYNA-N,hexane,236.27,258.558,-27114.376,-622.6677600000003,164.86100000000002,2.80896,9.22,14.451,-1.0049,-0.96385,-0.50617,0.53848,-1.0049,-1.593999992
YLQWCDOCJODRMT-UHFFFAOYNA-N,1-heptanol,180.206,204.757,-22304.33,-487.04627906976384,212.593,5.21324,8.849,12.18,-0.54869,-0.8041200000000001,-0.54869,0.59465,-0.54869,-0.366531544
ZUOUZKKEUPVFJK-UHFFFAOYNA-N,1-hexanol,154.211,198.095,-22001.152,-1182.5228148148162,212.593,5.21324,10.072,12.192,0.0,-1.59723,-0.17938,0.16298,0.0,-0.17146789
GPSDUZXPYCFOSQ-BGGKNDAXNA-N,2-butanol,136.15,170.21,-22169.284,-975.6990857142846,212.593,5.21324,9.48,12.825,-1.09146,-0.48911,-0.609,0.65868,-1.09146,0.28926754
AIONOLUJZLIMTK-AWEZNQCLNA-N,methanol,302.283,303.021,-30725.246000000006,-807.9605714285681,212.593,5.21324,9.557,11.882,-2.83576,-0.3581499999999999,-0.68149,0.67703,-2.83576,-0.951352961
SKZKKFZAGNVIMN-FSHFIPFONA-N,fluorobenzene,137.138,161.144,-21210.616,-711.4041176470564,156.644,6.07305,9.08,9.533,-1.1603,0.06057,-0.66293,0.64102,-1.68929,-1.649199829
RXKNNAKAVAHBNK-UHFFFAOYNA-N,nonane,140.098,154.652,-20083.084,1445.119684210531,156.644,6.07305,8.761000000000001,14.26,-1.48606,-0.81206,-0.53239,0.84901,-0.0247,-3.581698709
DAUAQNGYDSHRET-KZFATGLANA-N,1-pentanol,182.176,208.279,-26302.164,-1952.7478461538449,210.136,2.29064,9.361,11.89,-1.8378,-0.0615399999999999,-0.61034,0.66839,-1.8378,-1.267000002
HYYBABOKPJLUIN-HCKMINDGNA-N,toluene,241.289,270.32,-28519.115999999995,-20.98679999999149,210.136,2.29064,8.616,9.35,-1.07858,-1.29404,-0.57046,0.67053,-1.48798,-2.455509407
LULAYUGMBFYYEX-BGGKNDAXNA-N,3-methyl-1-butanol,156.568,170.48,-22093.788,-907.2868571428552,210.136,2.29064,9.095,12.967,-1.07634,0.07085,-0.59838,0.66174,-1.16284,-0.093136215
FAOHQGXEASKQDL-AHPDCHJINA-N,2-propanol,215.685,249.102,-28474.644,-2445.6225454545456,210.136,2.29064,9.633,12.8,0.0,-0.11342,-0.56353,0.49379,-2.40415,-1.339571312
ZWLPBLYKEWSWPD-BGGKNDAXNA-N,1-decanol,136.15,166.569,-22543.778,-1535.695250000001,210.136,2.29064,9.701,12.768,-1.08977,-0.49056,-0.61335,0.67762,-1.08977,0.017033339
GJCOSYZMQJWQCA-UHFFFAOYNA-N,4-methyl-2-pentanol,182.221,210.426,-22708.378,-699.9975121951211,210.136,2.29064,10.178,11.795000000000002,-0.36589,-1.33207,-0.36589,0.25068,-0.36589,-0.853871964
VFVHWCKUHAEDMY-UHFFFAOYNA-N,ethanol,185.566,187.804,-23078.298000000003,-1283.2417142857155,210.136,2.29064,8.620000000000001,13.444,-1.56699,0.00143,-0.54851,0.87045,-0.74383,-20.0
GVIJJXMXTUZIOD-UHFFFAOYNA-N,ethanol,216.315,223.495,-23508.208,-509.57031578947135,210.136,2.29064,9.841,11.644,0.0,-1.29409,-0.14253,0.17735,-0.09629,-1.755920002
MHKKFFHWMKEBDW-UHFFFAOYNA-N,1-propanol,228.201,236.765,-28288.494,-322.6148571428603,255.486,0.0135754999999999,9.438,13.902,-2.94012,0.5543300000000002,-0.57337,0.65981,-2.94012,-2.069665831
PYHXGXCGESYPCW-YAQRNVERNA-N,water,212.248,243.49,-26671.028,-818.6988571428519,255.486,0.0135754999999999,11.558,13.721,-1.0865,-1.11946,-0.59667,0.65436,-1.0865,-3.073333234
LDZYRENCLPUXAX-UHFFFAOYSA-N,1-hexanol,132.165,167.27,-20984.558000000005,-1246.51666666667,255.486,0.0135754999999999,9.93,12.122,0.0,-0.81384,-0.5039,0.30711,-0.7487900000000001,0.128399269
ROORDVPLFPIABK-UHFFFAOYNA-N,2-propanol,214.22,245.088,-25770.728,-570.8302857142844,255.486,0.0135754999999999,9.471,13.025,-1.33216,-0.4200899999999999,-0.55945,0.76487,-1.33216,-0.865312074
RJKGJBPXVHTNJL-UHFFFAOYNA-N,toluene,173.171,192.125,-22435.1,-284.5848780487795,255.486,0.0135754999999999,7.661999999999999,9.845,-0.96239,-1.04288,-0.4826,0.83425,-0.1281399999999999,0.551701024
KZTYYGOKRVBIMI-UHFFFAOYNA-N,1-pentanol,218.27,232.139,-25460.454,747.3299166666657,255.486,0.0135754999999999,9.865,12.828,-1.99328,-2.10055,-0.99676,2.45658,0.4633000000000002,-1.311455318
MWPLVEDNUUSJAV-UHFFFAOYNA-N,undecane,178.233,211.323,-21521.28,718.2384571428593,221.704,0.000612191,9.393999999999998,12.213,0.0,-1.55633,-0.19284,0.16168,0.0,-1.910094889
NVKJOXRVEKMMHS-UHFFFAOYNA-N,1-butanol,128.047,130.739,-20908.352000000003,-1553.8374285714308,221.704,0.000612191,5.968999999999999,14.968,-1.03585,0.55189,-0.41542,0.85386,-0.5518900000000001,-1.40689366
LXCFILQKKLGQFO-UHFFFAOYNA-N,1-heptanol,152.149,181.297,-22945.542,-1347.7022222222258,177.133,4.4121500000000005,9.624,12.548,-1.48801,-0.09517,-0.60707,0.6806,-1.48801,0.02782192
KZTYYGOKRVBIMI-UHFFFAOYNA-N,"1,2-dichloroethane",218.27,232.259,-25741.93800000001,465.8459166666617,249.811,7.465380000000001,10.314,10.462000000000002,-1.98651,-2.09927,-0.9933,2.45395,0.4674399999999998,0.066352002
DWMREKMVXIFPFM-RWWBHRBBNA-N,chloroform,351.394,322.097,-33312.928,-1279.890083333332,249.811,7.465380000000001,9.84,7.951,-2.93421,-0.90647,-0.96462,2.48073,-1.72283,-1.6382469
CMWTZPSULFXXJA-GTNTULIANA-N,acetonitrile,230.263,260.75,-28578.878,-892.9337714285684,249.811,7.465380000000001,11.779,10.132,-1.49201,-1.10626,-0.62417,0.64432,-1.49201,-0.958169108
XMTQQYYKAHVGBJ-XWKXFZRBNA-N,chlorobenzene,233.097,243.385,-27004.032,-2019.340479999999,249.811,7.465380000000001,8.943,9.03,-0.64027,-0.25854,-0.64027,0.67863,-1.61065,-1.780000002
VLYWMPOKSSWJAL-YAQRNVERNA-N,methanol,280.301,279.929,-29467.502000000004,-189.21741666667003,249.811,7.465380000000001,9.33,11.911,-2.32068,-0.95141,-0.99149,2.57615,-1.5110199999999998,-1.114522793
RISDZDVHYCURHD-JZUIEBFJNA-N,chloroform,877.042,744.647,-68874.076,622.3607999999949,249.811,7.465380000000001,9.239999999999998,8.056000000000001,-5.89555,-3.8229,-0.60843,0.69505,-7.29343,-0.525520259
YGSDEFSMJLZEOE-BGGKNDAXNA-N,3-methyl-1-butanol,138.123,157.412,-21660.842,-514.0293999999994,249.811,7.465380000000001,9.213,12.712,-1.58492,0.15105,-0.62659,0.69404,-1.58492,0.121742234
RJKFOVLPORLFTN-LEKSSAKUNA-N,dmso,314.467,328.689,-33753.914000000004,-1425.169000000005,249.811,7.465380000000001,8.113,11.14,-1.2464,-3.5456,-0.64796,0.64196,-1.2464,-0.906175546
WJFKNYWRSNBZNX-UHFFFAOYNA-N,2-methyl-2-propanol,199.27,217.26,-24917.316,-1670.696,249.811,7.465380000000001,9.981,11.174,0.0,-1.21986,-0.39867,0.29851,-0.43213,-1.200101382
BSYNRYMUTXBXSQ-WXRBYKJCNA-N,benzene,180.16,197.934,-24787.15,-612.8681500000093,249.811,7.465380000000001,8.596,10.612,-1.99102,0.31513,-0.58309,0.69528,-1.99102,-1.958607315
GPSDUZXPYCFOSQ-BGGKNDAXNA-N,1-propanol,136.15,170.006,-21861.55,-667.9650857142842,249.811,7.465380000000001,9.46,12.62,-1.09297,-0.4899399999999999,-0.61077,0.65934,-1.09297,0.292804273
MHKKFFHWMKEBDW-UHFFFAOYNA-N,ethanol,228.201,242.058,-27089.210000000003,876.6691428571394,249.811,7.465380000000001,9.709,13.908,-2.94421,0.57722,-0.57385,0.66824,-2.94421,-2.137184549
GVIJJXMXTUZIOD-UHFFFAOYNA-N,nonane,216.315,223.495,-23372.448,-373.8103157894693,239.587,1.67928,10.248,12.516,0.0,-1.27736,-0.13939,0.16844,-0.03393,-1.522878745
DNXHEGUUPJUMQT-CBZIJGRNNA-N,acetonitrile,270.371,286.4,-28876.890000000003,-52.47500000000946,239.587,1.67928,12.793,10.298,-1.12012,-2.57091,-0.60831,0.56032,-1.12012,-1.853871964
LPNBBFKOUUSUDB-BGGKNDAXNA-N,methanol,136.15,170.017,-22261.724,-1469.2203999999983,239.587,1.67928,9.728,12.785,-1.10979,-0.50033,-0.62297,0.67541,-1.10979,-0.108291209
PJANXHGTPQOBST-VAWYXSNFNA-N,octane,180.249,233.288,-24117.756,-684.3897777777784,235.39,0.00274368,10.363,12.861999999999998,0.0,-1.83046,-0.18426,0.15523,0.0,-1.112201341
BSYNRYMUTXBXSQ-WXRBYKJCNA-N,1-pentanol,180.16,198.444,-25214.176,-1039.8941500000074,235.39,0.00274368,9.178,13.082,-2.07172,0.3248799999999999,-0.60631,0.71299,-2.07172,-0.250413026
YZMCKZRAOLZXAZ-WYUMXYHSNA-N,methanol,278.328,276.297,-29173.99,-421.4399999999951,314.788,8.441089999999999,9.685,11.97,-1.93793,-1.21907,-0.96977,2.55397,-1.7448800000000002,-1.552841969
JYGXADMDTFJGBT-VWUMJDOONA-N,dmso,362.465,342.84,-37198.166000000005,-1293.857400000008,314.788,8.441089999999999,8.063,11.057,-2.89301,-2.46214,-0.6391,0.64068,-2.89301,-0.137355699
ZWLPBLYKEWSWPD-BGGKNDAXNA-N,"1,4-dioxane",136.15,166.384,-21569.886,-561.8032499999972,314.788,8.441089999999999,8.998000000000001,11.539,-1.06244,-0.48129,-0.56866,0.65745,-1.06244,0.421603927
QUEKGYQTRJVEQC-KZFATGLANA-N,3-methyl-1-butanol,201.566,196.614,-24797.402,-1289.5206086956496,198.276,5.74021,8.25,13.609,-2.04511,0.2483999999999999,-0.57492,0.86669,-1.21679,-0.167491087
QCXJEYYXVJIFCE-QIQUEDJNNA-N,acetonitrile,179.175,207.178,-25538.738,-1052.0563999999977,198.276,5.74021,11.782,10.931,-1.74313,0.1499199999999999,-0.63458,0.6818,-2.19757,-2.0
CDPKJZJVTHSESZ-KZFATGLANA-N,dmso,170.595,190.803,-23134.312,-1275.0003333333334,191.123,3.84676,8.06,10.632,-1.0939,-0.30218,-0.59725,0.67824,-1.20003,0.758911892
ASWVTGNCAZCNNR-WYUMXYHSNA-N,cyclohexane,278.328,283.898,-29272.332,-131.9575000000077,313.08399999999995,6.69034,10.12,13.227,-1.89754,-1.18027,-0.95147,2.51338,-1.6334099999999998,-5.407494592
WLJVXDMOQOGPHL-BGGKNDAXNA-N,"2,2,4-trimethylpentane",136.15,170.855,-21466.314,-427.26022222221945,313.08399999999995,6.69034,10.743,13.924,-1.04017,-0.4840399999999999,-0.55576,0.65305,-1.04017,-1.115420495
FJKROLUGYXJWQN-BGGKNDAXNA-N,2-methyl-1-propanol,138.123,160.929,-22021.766,-1183.8727142857097,313.08399999999995,6.69034,9.437,12.765,-1.58741,0.13452,-0.62033,0.68377,-1.58741,0.145507171
ZUOUZKKEUPVFJK-UHFFFAOYNA-N,1-pentanol,154.211,198.05,-21602.322,-783.6928148148145,201.225,0.0014602,10.07,12.121,0.0,-1.59683,-0.17919,0.16251,0.0,-0.169840477
JYGXADMDTFJGBT-VWUMJDOONA-N,acetonitrile,362.465,345.357,-36534.130000000005,-629.821400000008,201.225,0.0014602,12.074,11.443,-2.88563,-2.50059,-0.65302,0.64645,-2.88563,-2.045757491
DAUAQNGYDSHRET-KZFATGLANA-N,acetone,182.176,208.363,-26226.948,-1877.531846153841,210.409,3.39094,9.253,9.716,-1.84421,-0.06228,-0.61287,0.67011,-1.84421,-0.803000001
BSYNRYMUTXBXSQ-WXRBYKJCNA-N,2-butanol,180.16,198.423,-25348.832,-1174.5501500000064,210.409,3.39094,9.204,13.284,-2.07258,0.3255599999999999,-0.60699,0.71293,-2.07258,-0.248720896
YJGVMLPVUAXIQN-XVVDYKMHNA-N,1-butanol,414.411,378.644,-37514.672000000006,-427.509666666665,210.409,3.39094,9.819,11.936,-3.42704,-0.50761,-0.58203,0.66284,-3.42704,-1.232844134
SATCULPHIDQDRE-UHFFFAOYNA-N,methanol,150.134,168.377,-22499.282,-2006.398545454544,210.409,3.39094,9.369,12.019,-1.30002,0.26668,-0.5726,0.45398,-1.30002,0.862289475
PZPZDEIASIKHPY-UHFFFAOYNA-N,2-propanol,242.234,257.443,-27544.05,-821.9253333333363,210.409,3.39094,9.006,12.717,-1.64633,-0.71098,-0.58886,0.87889,-1.24201,-1.801934341
CMWTZPSULFXXJA-GTNTULIANA-N,cyclohexane,230.263,260.083,-28823.59,-1137.6457714285716,210.409,3.39094,9.795,12.754,-1.41658,-1.05798,-0.5517,0.61579,-1.41658,-3.0
ISAOCJYIOMOJEB-UHFFFAOYNA-N,acetone,212.248,240.375,-28291.478,-2619.7053157894734,262.277,2.91701,9.206,10.38,-1.09528,-1.06475,-0.55566,0.51462,-1.09528,-0.655722642
FZERHIULMFGESH-BGGKNDAXNA-N,acetone,135.165,175.218,-22474.502,-367.805833333332,262.277,2.91701,10.019,9.805,-0.64753,-0.6800099999999999,-0.64753,0.669,-1.1013000000000002,0.151982395
XRHGYUZYPHTUJZ-BGGKNDAXNA-N,1-decanol,156.568,170.601,-22470.438,-1069.5773333333343,262.277,2.91701,9.286,13.056,-1.07611,0.06934,-0.59503,0.6643,-1.16319,-0.986257255
BBEAQIROQSPTKN-UHFFFAOYNA-N,3-methoxy-1-butanol,202.255,222.477,-22114.524,-6.415014925369178,262.277,2.91701,8.26,10.603,0.0,-1.65285,-0.17821,0.16683,0.0,-0.661122316
WURBVZBTWMNKQT-UHFFFAOYNA-N,p-xylene,293.752,297.89,-30234.402,-1094.089714285714,262.277,2.91701,8.049000000000001,10.336,-0.8375699999999999,-1.3005,-0.52013,0.43918,-1.53952,0.024473386
ZFXYFBGIUFBOJW-FZOZFQFYNA-N,water,180.166,189.784,-23725.862,-958.4258461538484,194.164,4.60205,11.012,13.52,-1.22019,0.71971,-0.61093,0.68867,-2.36183,-1.340303203
YRHRIQCWCFGUEQ-UHFFFAOYNA-N,p-xylene,212.266,221.762,-24100.174,-907.0831785714254,194.164,4.60205,7.782000000000001,9.408,-0.54463,-0.80189,-0.54463,0.56794,-0.5416,-1.351958361
ONUFSRWQCKNVSL-UHFFFAOYNA-N,"1,2-dibromoethane",334.116,260.826,-29248.056,171.27779999999257,288.216,0.0007784879999999,9.104,10.385,0.0,0.79119,-0.09563,0.16705,-0.79116,-0.338571319
DWMREKMVXIFPFM-RWWBHRBBNA-N,ethanol,351.394,322.627,-33890.439999999995,-1857.402083333327,288.216,0.0007784879999999,8.939,11.661,-2.92914,-0.88564,-0.98154,2.49555,-1.75771,-3.110058815
ILUJQPXNXACGAN-BGGKNDAXNA-N,2-propanol,152.149,179.026,-23779.95,-896.2777837837893,177.21300000000002,4.51204,9.759,12.553,-1.48271,-0.07429,-0.61009,0.70095,-1.48271,-0.229147988
ZWLPBLYKEWSWPD-BGGKNDAXNA-N,2-ethoxyethanol,136.15,166.384,-21984.71,-976.6272499999976,177.21300000000002,4.51204,8.95,12.02,-1.10172,-0.48795,-0.60478,0.67642,-1.10172,0.329715207
YBZQRYWKYBZZNT-IAUQMDSZNA-N,chloroform,113.159,156.739,-22045.398,-1545.5823333333356,156.923,5.88429,12.287,9.947,-0.65564,-0.9305,-0.65564,0.64748,-1.20996,-0.27572413
ALYNCZNDIQEVRV-BGGKNDAXNA-N,sulfolane,137.138,165.992,-21692.318,-791.3822758620663,156.923,5.88429,10.096,9.905,-1.12603,0.0224,-0.63444,0.68666,-1.62437,0.154163959
YRHRIQCWCFGUEQ-UHFFFAOYNA-N,1-chlorooctane,212.266,221.762,-24334.666,-1141.5751785714235,236.332,2.92296,9.38,9.938,-0.56804,-0.79899,-0.56804,0.58006,-0.57274,-1.617156117
ZZUFCTLCJUWOSV-CDZRGBSPNA-N,water,330.742,291.283,-32492.282000000003,-1833.3635,342.03099999999995,5.76488,10.432,13.486,-3.30512,-0.48585,-1.00072,2.57259,-2.10193,-3.816044593
REFJWTPEDVJJIY-UHFFFAOYNA-N,acetonitrile,302.24,289.343,-29879.094,382.864499999996,342.03099999999995,5.76488,11.344,10.501,-3.20539,0.3633900000000001,-0.62239,0.58904,-3.20539,-1.434166176
ODVLMCWNGKLROU-KZFATGLANA-N,acetonitrile,180.16,196.532,-23567.006,-99.78879999999845,342.03099999999995,5.76488,12.373,10.367,-1.85252,0.16078,-0.60801,0.68383,-1.85252,-0.724641732
ZEYHEAKUIGZSGI-BGGKNDAXNA-N,1-propanol,152.149,180.632,-23288.496000000003,-1801.974068965519,342.03099999999995,5.76488,9.579,12.448,-1.48759,-0.09651,-0.62326,0.68466,-1.48759,-0.886056648
QUEKGYQTRJVEQC-KZFATGLANA-N,1-pentanol,201.566,196.512,-24528.834000000003,-1020.952608695654,198.417,5.73503,8.395,13.423,-2.04504,0.24855,-0.57437,0.86665,-1.21705,-0.13076828
KZTYYGOKRVBIMI-UHFFFAOYNA-N,2-methyl-1-pentanol,218.27,232.195,-25399.142000000003,808.6419166666637,198.417,5.73503,9.734,12.893,-1.98938,-2.09999,-0.99479,2.45507,0.4656900000000001,-1.446985751
WURBFLDFSFBTLW-UHFFFAOYNA-N,ethanol,210.232,240.01,-26060.522,-1049.876204081629,255.392,5.341709999999999,9.041,13.069,-1.01779,-0.6685800000000001,-0.50923,0.44225,-1.01779,-0.76
ONUFSRWQCKNVSL-UHFFFAOYNA-N,"cis-1,2-dimethylcyclohexane",334.116,259.856,-29446.687999999995,-27.354200000001583,255.392,5.341709999999999,8.782,14.859000000000002,0.0,0.76072,-0.09219,0.16209,-0.76071,-0.132662221
JGMBHJNMQVKDMW-UHFFFAOYNA-N,methanol,291.176,286.852,-29654.35,-1804.3534285714268,322.89,1.57814,9.694,12.445,-0.61553,-1.35002,-0.61553,0.61923,-0.77432,-1.363016999